<?xml version="1.0"?>
<VTKFile type="ImageData" version="0.1" byte_order="LittleEndian">
<ImageData WholeExtent="0 199 0 199 0 0" Origin="0 0 0" Spacing="15 15 0">
<Piece Extent="0 199 0 199 0 0">
<PointData Scalars="Amplitude">
<DataArray type="Float32" Name="Amplitude" format="ascii">
0 0 0 0 0 0 0 0 0 0 0 0 0 0 0 0 0 0 0 0 0 0 0 0 0 0 0 0 0 0 0 0 0 0 0 0 0 0 0 0 0 0 0 0 0 0 0 0 0 0 0 0 0 0 0 0 0 0 0 0 0 0 0 0 0 0 0 0 0 0 0 0 0 0 0 0 0 0 0 0 0 0 0 0 0 0 0 0 0 0 0 0 0 0 0 0 0 0 0 0 0 0 0 0 0 0 0 0 0 0 0 0 0 0 0 0 0 0 0 0 0 0 0 0 0 0 0 0 0 0 0 0 0 0 0 0 0 0 0 0 0 0 0 0 0 0 0 0 0 0 0 0 0 0 0 0 0 0 0 0 0 0 0 0 0 0 0 0 0 0 0 0 0 0 0 0 0 0 0 0 0 0 0 0 0 0 0 0 0 0 0 0 0 0 0 0 0 0 0 0 
0 0 0 0 0 0 0 0 0 0 0 0 0 0 0 0 0 0 0 0 0 0 0 0 0 0 0 0 0 0 0 0 0 0 0 0 0 0 0 0 0 0 0 0 0 0 0 0 0 0 0 0 0 0 0 0 0 0 0 0 0 0 0 0 0 0 0 0 0 0 0 0 0 0 0 0 0 0 0 0 0 0 0 0 0 0 0 0 0 0 0 0 0 0 0 0 0 0 0 0 0 0 0 0 0 0 0 0 0 0 0 0 0 0 0 0 0 0 0 0 0 0 0 0 0 0 0 0 0 0 0 0 0 0 0 0 0 0 0 0 0 0 0 0 0 0 0 0 0 0 0 0 0 0 0 0 0 0 0 0 0 0 0 0 0 0 0 0 0 0 0 0 0 0 0 0 0 0 0 0 0 0 0 0 0 0 0 0 0 0 0 0 0 0 0 0 0 0 0 0 
0 0 -2.4273e-08 6.06694e-09 1.10299e-07 1.01247e-07 -3.72592e-07 -7.7345e-07 1.67534e-07 1.3825e-06 -6.89985e-07 -5.07242e-06 -4.47173e-06 1.93171e-06 2.26711e-06 -9.87058e-06 -2.07169e-05 -1.5186e-05 -2.5642e-06 -5.47735e-06 -2.6308e-05 -4.22722e-05 -3.64e-05 -1.93901e-05 -1.43526e-05 -2.80461e-05 -4.46562e-05 -4.52101e-05 -2.74586e-05 -6.2818e-06 2.6641e-06 -2.13348e-06 -8.01187e-06 -7.18734e-07 2.31678e-05 5.4327e-05 7.91738e-05 9.04708e-05 9.17106e-05 9.30442e-05 0.000103028 0.00012255 0.000144576 0.000158942 0.00015851 0.000142845 0.000117684 9.12281e-05 6.98343e-05 5.53544e-05 4.51327e-05 3.41375e-05 1.78487e-05 -5.49872e-06 -3.41762e-05 -6.37615e-05 -8.8893e-05 -0.000105181 -0.000110468 -0.000105044 -9.11338e-05 -7.20905e-05 -5.16484e-05 -3.33062e-05 -1.97446e-05 -1.2335e-05 -1.08779e-05 -1.38281e-05 -1.88672e-05 -2.3639e-05 -2.634e-05 -2.60287e-05 -2.2621e-05 -1.6678e-05 -9.13342e-06 -1.04073e-06 6.62345e-06 1.31e-05 1.79041e-05 2.08218e-05 2.18575e-05 2.11699e-05 1.90374e-05 1.58041e-05 1.18282e-05 7.43325e-06 2.90606e-06 -1.52153e-06 -5.68356e-06 -9.46826e-06 -1.2811e-05 -1.56855e-05 -1.80872e-05 -2.00482e-05 -2.1612e-05 -2.28275e-05 -2.37426e-05 -2.43999e-05 -2.48417e-05 -2.51004e-05 -2.51875e-05 -2.51043e-05 -2.48501e-05 -2.44117e-05 -2.37544e-05 -2.28361e-05 -2.16162e-05 -2.00487e-05 -1.80853e-05 -1.56814e-05 -1.28046e-05 -9.46058e-06 -5.67685e-06 -1.51828e-06 2.90597e-06 7.43218e-06 1.18283e-05 1.58053e-05 1.90426e-05 2.1189e-05 2.19084e-05 2.08992e-05 1.78853e-05 1.25824e-05 4.75417e-06 -5.58238e-06 -1.77194e-05 -2.97153e-05 -3.82372e-05 -3.93959e-05 -3.08072e-05 -1.39947e-05 4.79606e-06 1.69877e-05 1.64953e-05 3.48275e-06 -1.6372e-05 -3.68264e-05 -5.56e-05 -7.4055e-05 -9.26736e-05 -0.000107889 -0.000114018 -0.000107816 -9.03844e-05 -6.52658e-05 -3.63339e-05 -7.74489e-06 1.60358e-05 3.23522e-05 4.2802e-05 5.26335e-05 6.71953e-05 8.86572e-05 0.000114834 0.000139717 0.000155463 0.00015616 0.000141902 0.000119858 0.000100488 9.09022e-05 8.99817e-05 8.89773e-05 7.78226e-05 5.32312e-05 2.24816e-05 -1.00935e-06 -8.07726e-06 -2.10372e-06 2.83034e-06 -5.82521e-06 -2.66133e-05 -4.40127e-05 -4.35583e-05 -2.72999e-05 -1.38521e-05 -1.88875e-05 -3.57539e-05 -4.1607e-05 -2.5864e-05 -5.30901e-06 -2.47856e-06 -1.50102e-05 -2.05079e-05 -9.78656e-06 2.21441e-06 1.8704e-06 -4.46981e-06 -5.05101e-06 -6.96402e-07 1.35731e-06 1.44858e-07 -7.8209e-07 -3.53224e-07 1.32158e-07 7.92832e-08 1.55625e-08 0 0 
0 0 6.06694e-09 7.09992e-08 1.27771e-07 -3.8881e-07 -8.57648e-07 2.22376e-07 1.40685e-06 -1.77166e-06 -7.06631e-06 -4.51003e-06 3.55273e-06 -1.80557e-06 -2.28386e-05 -3.19785e-05 -1.56402e-05 -4.33507e-06 -2.90947e-05 -6.94013e-05 -7.91292e-05 -5.34882e-05 -3.58917e-05 -5.77654e-05 -9.85004e-05 -0.000113828 -8.87697e-05 -5.08189e-05 -3.61263e-05 -5.13979e-05 -6.98833e-05 -5.99834e-05 -1.47966e-05 4.4095e-05 8.80313e-05 0.000105762 0.000110506 0.000126622 0.000169251 0.000233078 0.000296957 0.000338704 0.000348572 0.000333124 0.000308771 0.000290483 0.000283184 0.000280144 0.000268081 0.000235114 0.000177104 9.9592e-05 1.51241e-05 -6.20517e-05 -0.000121146 -0.000157761 -0.000174058 -0.00017679 -0.000174077 -0.000172217 -0.000173666 -0.000176798 -0.000177481 -0.000171534 -0.000156798 -0.000133736 -0.000104797 -7.3219e-05 -4.205e-05 -1.37185e-05 9.9662e-06 2.7695e-05 3.86897e-05 4.27727e-05 4.0381e-05 3.25073e-05 2.05943e-05 6.30279e-06 -8.75318e-06 -2.31343e-05 -3.57442e-05 -4.58383e-05 -5.30636e-05 -5.73838e-05 -5.9005e-05 -5.82691e-05 -5.56075e-05 -5.15102e-05 -4.64415e-05 -4.07953e-05 -3.49184e-05 -2.90961e-05 -2.35686e-05 -1.85101e-05 -1.40196e-05 -1.01445e-05 -6.92551e-06 -4.37996e-06 -2.56319e-06 -1.48078e-06 -1.12792e-06 -1.49331e-06 -2.58659e-06 -4.40806e-06 -6.94995e-06 -1.01606e-05 -1.40267e-05 -1.85096e-05 -2.35622e-05 -2.90847e-05 -3.49035e-05 -4.07812e-05 -4.64334e-05 -5.15091e-05 -5.56081e-05 -5.82678e-05 -5.90026e-05 -5.7378e-05 -5.30342e-05 -4.57428e-05 -3.55606e-05 -2.30298e-05 -9.41854e-06 3.22428e-06 1.22795e-05 1.55473e-05 1.27467e-05 6.8706e-06 3.73342e-06 8.58527e-06 2.09987e-05 3.18849e-05 2.68412e-05 -4.18431e-06 -5.75632e-05 -0.000115973 -0.000159659 -0.000179995 -0.000183068 -0.000180746 -0.000179875 -0.000180383 -0.000180826 -0.000180955 -0.000177774 -0.000162697 -0.000126404 -6.64603e-05 1.08429e-05 9.4196e-05 0.000170832 0.000228919 0.000261904 0.000273299 0.000275779 0.00028329 0.000302048 0.000326511 0.000341987 0.000332635 0.000291803 0.000228697 0.000165318 0.000123171 0.00010788 0.000104117 8.71176e-05 4.35676e-05 -1.49755e-05 -5.95481e-05 -6.86197e-05 -4.9423e-05 -3.37973e-05 -4.81583e-05 -8.61041e-05 -0.000111285 -9.64311e-05 -5.63368e-05 -3.47756e-05 -5.22362e-05 -7.77117e-05 -6.82595e-05 -2.8547e-05 -4.16329e-06 -1.54157e-05 -3.16307e-05 -2.26346e-05 -1.85602e-06 3.442e-06 -4.51698e-06 -7.03273e-06 -1.79939e-06 1.34996e-06 2.21901e-07 -8.12492e-07 -4.19514e-07 -1.95473e-08 8.69519e-08 0 0 
0 0 1.10299e-07 1.27771e-07 -1.91381e-07 -1.38074e-06 -5.70537e-07 2.92421e-06 7.39048e-07 -1.05366e-05 -1.18403e-05 7.37296e-06 1.14e-05 -2.78063e-05 -6.05229e-05 -2.90958e-05 1.84321e-05 -1.29023e-05 -0.000107382 -0.00014619 -8.34013e-05 -1.81475e-05 -5.44665e-05 -0.000160701 -0.000217253 -0.000167274 -7.52611e-05 -4.30529e-05 -9.80589e-05 -0.000172396 -0.000179014 -9.61811e-05 1.91346e-05 9.00879e-05 8.86049e-05 5.40213e-05 5.4382e-05 0.000129756 0.000263605 0.00039907 0.00048146 0.000493312 0.000460157 0.000428394 0.000433437 0.000478683 0.000536294 0.000565411 0.000534956 0.000438655 0.000296179 0.000142289 1.10351e-05 -7.73889e-05 -0.000121778 -0.000136527 -0.000143081 -0.000160553 -0.000198868 -0.000256447 -0.00032169 -0.000377213 -0.000405777 -0.000396045 -0.000346481 -0.000265408 -0.000168035 -7.12284e-05 1.09215e-05 6.96848e-05 0.000101854 0.000108668 9.43451e-05 6.4635e-05 2.57258e-05 -1.64868e-05 -5.68303e-05 -9.13085e-05 -0.000117317 -0.000133571 -0.000139953 -0.000137159 -0.000126635 -0.000110184 -8.97128e-05 -6.69097e-05 -4.33088e-05 -2.01738e-05 1.60685e-06 2.14661e-05 3.90607e-05 5.4263e-05 6.70019e-05 7.74289e-05 8.57984e-05 9.23883e-05 9.74383e-05 0.000101157 0.000103676 0.00010514 0.000105616 0.000105115 0.000103636 0.000101117 9.74096e-05 9.23725e-05 8.57941e-05 7.74343e-05 6.70163e-05 5.4284e-05 3.90829e-05 2.14811e-05 1.607e-06 -2.01809e-05 -4.33088e-05 -6.69029e-05 -8.97075e-05 -0.000110162 -0.000126534 -0.00013689 -0.000139587 -0.0001338 -0.000120178 -0.000100853 -7.88606e-05 -5.61182e-05 -3.09908e-05 2.33342e-06 4.99797e-05 0.000109825 0.000164037 0.00018157 0.0001346 2.00936e-05 -0.000131675 -0.000272754 -0.000367108 -0.000408122 -0.000409681 -0.00038421 -0.000335302 -0.000269503 -0.000205749 -0.000164653 -0.000150002 -0.000145704 -0.000129254 -8.31943e-05 3.43322e-06 0.00013209 0.00028593 0.000429335 0.000524739 0.000553527 0.000524473 0.000468169 0.000423371 0.000417928 0.000450149 0.000485012 0.000474745 0.000392958 0.000257879 0.00012525 5.17354e-05 5.27772e-05 8.78334e-05 8.95443e-05 1.94849e-05 -9.42776e-05 -0.000175711 -0.000168569 -9.43804e-05 -3.94134e-05 -7.17284e-05 -0.000163131 -0.000212953 -0.000157333 -5.24035e-05 -1.65906e-05 -8.13382e-05 -0.000143745 -0.000105629 -1.23375e-05 1.85213e-05 -2.86517e-05 -5.98783e-05 -2.75653e-05 1.12335e-05 7.24937e-06 -1.17992e-05 -1.05321e-05 6.89632e-07 2.95659e-06 -5.48018e-07 -1.59378e-06 -4.19608e-07 1.35932e-07 0 0 
0 0 1.01247e-07 -3.8881e-07 -1.38074e-06 -2.91528e-07 2.9041e-06 -5.59826e-07 -1.23395e-05 -9.23088e-06 1.37308e-05 5.07292e-06 -5.16507e-05 -6.70848e-05 2.33844e-06 3.25688e-05 -7.53953e-05 -0.000196345 -0.000155832 -1.90431e-05 -1.32882e-05 -0.000189005 -0.000341321 -0.000296049 -0.000132011 -6.30892e-05 -0.000175414 -0.000343092 -0.000383111 -0.000250329 -6.86909e-05 5.60369e-06 -6.59292e-05 -0.000178872 -0.000190323 -4.32784e-05 0.000194519 0.000395224 0.000473016 0.000442124 0.00039488 0.000428099 0.000575902 0.000791416 0.00098064 0.00106048 0.00100294 0.000843479 0.000654752 0.000505937 0.000430182 0.000414731 0.000413995 0.000375095 0.000262766 7.31425e-05 -0.000166785 -0.000410489 -0.000609226 -0.000727992 -0.000753794 -0.000695397 -0.000576519 -0.000427102 -0.000276499 -0.000149762 -6.49896e-05 -3.05204e-05 -4.35428e-05 -9.1231e-05 -0.000154783 -0.00021453 -0.000254934 -0.000267252 -0.00024966 -0.000205696 -0.000142448 -6.85314e-05 7.79896e-06 7.93374e-05 0.000140855 0.000188958 0.000222138 0.000240421 0.000245035 0.000237932 0.000221386 0.000197977 0.000170102 0.000139768 0.00010873 7.83931e-05 4.98119e-05 2.38539e-05 1.01524e-06 -1.85006e-05 -3.45429e-05 -4.71438e-05 -5.6068e-05 -6.13417e-05 -6.3071e-05 -6.13805e-05 -5.61199e-05 -4.71834e-05 -3.45624e-05 -1.85042e-05 1.02401e-06 2.38734e-05 4.98383e-05 7.84228e-05 0.000108756 0.000139774 0.000170093 0.000197977 0.000221402 0.000237938 0.000245052 0.000240566 0.00022257 0.000189618 0.000140745 7.52913e-05 -6.7709e-06 -0.000103496 -0.000207186 -0.000300745 -0.000356915 -0.000346824 -0.000257648 -0.000110178 3.98385e-05 0.000127223 0.000117508 2.89821e-05 -8.78382e-05 -0.000196953 -0.000304015 -0.00043416 -0.000586236 -0.000717569 -0.000776138 -0.000739018 -0.000614537 -0.000421012 -0.00018194 6.09807e-05 0.00025378 0.00036276 0.000396952 0.000397956 0.000415267 0.000489233 0.000635251 0.000824698 0.000986565 0.00104428 0.00096361 0.000775789 0.000563408 0.000417481 0.000384571 0.000432858 0.000466572 0.000391714 0.000192284 -4.53418e-05 -0.000191402 -0.000177499 -6.19905e-05 1.06629e-05 -6.38451e-05 -0.000245621 -0.000377322 -0.000335555 -0.000169872 -5.91796e-05 -0.000127274 -0.000289404 -0.000334412 -0.000184245 -1.10003e-05 -1.70966e-05 -0.000152717 -0.000193064 -7.37414e-05 3.2696e-05 2.50231e-06 -6.63032e-05 -5.10605e-05 4.98469e-06 1.34482e-05 -9.24292e-06 -1.21793e-05 -5.40707e-07 2.63883e-06 -4.89748e-07 -8.53188e-07 -4.34358e-07 0 0 
0 0 -3.72592e-07 -8.57648e-07 -5.70537e-07 2.9041e-06 -4.41481e-07 -1.39741e-05 -9.58007e-06 1.91462e-05 2.96212e-06 -7.29655e-05 -7.42962e-05 3.33068e-05 3.62487e-05 -0.000156434 -0.000278055 -0.00012742 5.18025e-05 -7.92712e-05 -0.000410021 -0.000519667 -0.000292105 -6.73265e-05 -0.000163301 -0.000483482 -0.00066958 -0.000530051 -0.000231879 -8.93018e-05 -0.000229168 -0.000484314 -0.000577409 -0.000384213 -2.88447e-05 0.000247334 0.000296898 0.000175252 7.82401e-05 0.000180963 0.000511316 0.000942092 0.00128741 0.00142354 0.00135429 0.00119192 0.00107696 0.00109362 0.00122994 0.00139292 0.00146351 0.00135665 0.0010579 0.00062495 0.000158058 -0.000242313 -0.000510197 -0.000629599 -0.00063055 -0.000570837 -0.000513183 -0.000504741 -0.000562754 -0.000672174 -0.000794166 -0.000885016 -0.000911504 -0.000861582 -0.000742475 -0.0005739 -0.000378624 -0.000177689 1.08607e-05 0.000172269 0.000295628 0.000374248 0.000405744 0.000392493 0.0003409 0.000260179 0.000160537 5.155e-05 -5.77917e-05 -0.000160496 -0.000251415 -0.000327729 -0.000387867 -0.000431811 -0.000460903 -0.000477249 -0.000483059 -0.00048082 -0.000472498 -0.00046029 -0.000446332 -0.0004322 -0.000419109 -0.000408056 -0.000399702 -0.0003945 -0.00039282 -0.000394526 -0.000399731 -0.000408067 -0.000419097 -0.000432175 -0.000446302 -0.000460261 -0.000472468 -0.000480788 -0.000483039 -0.000477261 -0.000460904 -0.000431777 -0.000387859 -0.000327743 -0.000251239 -0.000159827 -5.66278e-05 5.18626e-05 0.000155237 0.000238732 0.000286663 0.000288243 0.00024754 0.00018934 0.000150771 0.00015533 0.000181964 0.000160126 1.09498e-05 -0.000283469 -0.000640687 -0.000918767 -0.0010168 -0.000947389 -0.000807364 -0.000684113 -0.000599521 -0.00054505 -0.000531543 -0.000575784 -0.000645338 -0.000655383 -0.000530899 -0.000255465 0.000139288 0.000596606 0.00103011 0.00133355 0.00143756 0.00136145 0.00119992 0.00106829 0.00105152 0.00116451 0.00132964 0.00140436 0.00127048 0.000925078 0.000496719 0.000171639 7.30241e-05 0.000170971 0.000292923 0.000246153 -2.5481e-05 -0.00037772 -0.000570658 -0.000478067 -0.000221751 -7.88729e-05 -0.000219042 -0.000516985 -0.000655953 -0.000472701 -0.000156121 -6.09095e-05 -0.0002834 -0.000509165 -0.000401565 -7.5014e-05 5.42046e-05 -0.000123684 -0.000273375 -0.000153623 3.66459e-05 3.34407e-05 -7.33467e-05 -7.22725e-05 2.8434e-06 1.89971e-05 -9.47025e-06 -1.41378e-05 -7.41483e-07 3.40517e-06 3.4678e-07 -8.91766e-07 0 0 
0 0 -7.7345e-07 2.22376e-07 2.92421e-06 -5.59826e-07 -1.39741e-05 -8.87738e-06 2.20146e-05 -2.39798e-06 -9.15922e-05 -6.78533e-05 7.29006e-05 1.07341e-05 -0.000275393 -0.000320831 -1.00454e-05 0.000108198 -0.000295449 -0.000727832 -0.000588402 -0.000109322 -2.8836e-05 -0.00052417 -0.00101101 -0.000943439 -0.000454183 -0.000137963 -0.000354189 -0.000862653 -0.00112879 -0.000878216 -0.000330645 4.78258e-05 -1.06891e-05 -0.000361016 -0.000603328 -0.000427852 0.000153025 0.00084265 0.00130115 0.00138279 0.00121005 0.00106062 0.00117243 0.001597 0.00218178 0.00267079 0.00284731 0.00263734 0.00212975 0.00151451 0.000986286 0.00066343 0.000551879 0.000561686 0.000559476 0.000426526 0.000104747 -0.000386605 -0.00096635 -0.00152357 -0.00195156 -0.0021724 -0.00214916 -0.00188885 -0.00144158 -0.000892542 -0.00034363 0.000112202 0.000413104 0.000537183 0.000500209 0.000342564 0.000113852 -0.000139607 -0.000379704 -0.000579068 -0.000722079 -0.000801994 -0.000820179 -0.000783061 -0.000700878 -0.000585457 -0.000448747 -0.000301462 -0.000152212 -8.54645e-06 0.000124231 0.000243119 0.000346482 0.000434004 0.000506249 0.000563967 0.000608895 0.000643124 0.000668494 0.000686876 0.000698674 0.000704843 0.000706663 0.000704876 0.000698726 0.000686941 0.000668556 0.000643171 0.000608931 0.000564 0.000506298 0.000434046 0.000346471 0.000243107 0.000124291 -8.52027e-06 -0.000152282 -0.000301304 -0.000447779 -0.000583532 -0.000699635 -0.000789095 -0.000849251 -0.000880673 -0.000880506 -0.000829576 -0.000685988 -0.000397462 5.36972e-05 0.000596224 0.00105305 0.00120662 0.000932851 0.000302942 -0.000451981 -0.00110535 -0.00157756 -0.00191841 -0.00216018 -0.00222814 -0.0020226 -0.00155724 -0.000969848 -0.000404519 6.35617e-05 0.000391563 0.00054033 0.000535131 0.000507563 0.000619275 0.000951801 0.00147596 0.00208073 0.00259057 0.00280879 0.00263126 0.00213816 0.00155871 0.00114315 0.00103345 0.00118222 0.00136067 0.00128822 0.000834455 0.000144866 -0.000434177 -0.000603091 -0.000353812 -1.24295e-06 5.61459e-05 -0.00032152 -0.000864218 -0.00110987 -0.000843155 -0.000338582 -0.000125524 -0.000439397 -0.000922582 -0.000989346 -0.000508854 -2.01688e-05 -0.00010082 -0.000575137 -0.000713584 -0.000286702 0.000111317 -6.90852e-06 -0.000315148 -0.000270657 1.18408e-05 7.25901e-05 -6.70817e-05 -9.04694e-05 -2.21241e-06 2.14792e-05 -9.25506e-06 -1.34354e-05 2.86401e-07 1.58061e-06 4.13409e-07 0 0 
0 0 1.67534e-07 1.40685e-06 7.39048e-07 -1.23395e-05 -9.58007e-06 2.20146e-05 -3.72712e-06 -0.000101672 -6.09225e-05 0.000102673 -3.11623e-05 -0.000386793 -0.000295752 0.000146123 4.92537e-05 -0.000655483 -0.000965289 -0.00040207 0.000142979 -0.000285125 -0.0012266 -0.00149211 -0.000836499 -0.000169393 -0.000344143 -0.00119037 -0.00178399 -0.00151602 -0.000697924 -0.000150926 -0.000369883 -0.00108478 -0.00156658 -0.00130759 -0.000423764 0.000500559 0.000914483 0.000719296 0.000294382 0.000180417 0.000691915 0.00172495 0.00285761 0.00362513 0.0037854 0.00342383 0.0028571 0.00244042 0.00237955 0.00264791 0.00302734 0.00322596 0.00301673 0.00232936 0.00126367 3.78932e-05 -0.00109676 -0.00193577 -0.00237356 -0.00241712 -0.00217086 -0.00178556 -0.00140559 -0.00112102 -0.000964972 -0.000924628 -0.000972373 -0.00107616 -0.00120597 -0.00132679 -0.00139893 -0.00138572 -0.00126644 -0.00104168 -0.000730394 -0.00036568 1.51207e-05 0.000375971 0.000689313 0.00093815 0.00111271 0.00121258 0.00124319 0.00121448 0.00113717 0.00102362 0.000886227 0.000736053 0.000581952 0.000431079 0.000288381 0.000157886 4.30358e-05 -5.48535e-05 -0.000135149 -0.000197753 -0.000242449 -0.000269994 -0.000278648 -0.000269835 -0.00024222 -0.000197543 -0.000135029 -5.48227e-05 4.30379e-05 0.000157951 0.000288499 0.000431115 0.000581917 0.000736109 0.000886288 0.00102347 0.00113727 0.0012158 0.00124621 0.00121548 0.00110711 0.000902091 0.000583032 0.000150014 -0.000359429 -0.000847629 -0.00116925 -0.00119927 -0.000931611 -0.000539754 -0.000305443 -0.000426235 -0.000838949 -0.00124401 -0.00136308 -0.00120015 -0.00103352 -0.00112553 -0.00148205 -0.001905 -0.00223371 -0.00241767 -0.00239022 -0.00199765 -0.00115464 1.09769e-05 0.00123006 0.00226386 0.00294824 0.00317588 0.00297277 0.00257366 0.00230729 0.00238278 0.00279766 0.00335632 0.00372691 0.0035815 0.00281579 0.00168196 0.000660469 0.000163541 0.000281748 0.000706214 0.000907593 0.000505441 -0.000411078 -0.00129529 -0.00155531 -0.00106787 -0.000343274 -0.000120343 -0.000672156 -0.00149804 -0.00176713 -0.00116652 -0.000326063 -0.000151295 -0.000810192 -0.00146014 -0.00119997 -0.000270501 0.000152296 -0.000387468 -0.000946106 -0.000641371 5.43222e-05 0.000148978 -0.000289439 -0.000380737 -2.96765e-05 0.000102426 -5.97719e-05 -0.000100779 -4.22373e-06 2.20559e-05 -8.59149e-06 -1.34382e-05 -2.62317e-06 1.85158e-06 0 0 
0 0 1.3825e-06 -1.77166e-06 -1.05366e-05 -9.23088e-06 1.91462e-05 -2.39798e-06 -0.000101672 -5.65502e-05 0.00011932 -7.34269e-05 -0.000472375 -0.000215938 0.000295729 -0.000153345 -0.00107163 -0.000960766 2.00749e-05 0.000205038 -0.000996609 -0.00203907 -0.00150855 -0.000265688 -9.3196e-05 -0.00127876 -0.00246351 -0.00235394 -0.00116195 -0.000266826 -0.000625037 -0.00184673 -0.00271101 -0.00236713 -0.0010912 6.76677e-05 0.000264292 -0.000469555 -0.00132208 -0.00139101 -0.000363935 0.00132186 0.00284195 0.00356164 0.00340692 0.00284101 0.00252315 0.0028942 0.00394882 0.00527408 0.00628519 0.00652657 0.00586126 0.00449063 0.0028375 0.00135341 0.000348864 -9.13854e-05 -0.000101205 5.20378e-05 8.88953e-05 -0.000186617 -0.000839605 -0.00180372 -0.0029116 -0.00393865 -0.00465337 -0.00488381 -0.00456647 -0.0037674 -0.00265406 -0.0014301 -0.00027967 0.000668361 0.00134847 0.00174864 0.00188622 0.00179625 0.00152599 0.00112539 0.000644289 0.000130325 -0.000375621 -0.000840976 -0.00124417 -0.00157357 -0.0018265 -0.00200461 -0.0021137 -0.00216388 -0.00216688 -0.00213493 -0.00207802 -0.00200471 -0.0019241 -0.0018447 -0.00177328 -0.0017147 -0.00166959 -0.00163997 -0.00162959 -0.00163962 -0.00166908 -0.00171427 -0.00177306 -0.00184468 -0.00192404 -0.00200453 -0.00207792 -0.00213499 -0.00216687 -0.00216385 -0.002114 -0.00200473 -0.00182488 -0.00156916 -0.00123877 -0.000844356 -0.000416079 -2.9009e-06 0.000342301 0.000597422 0.000807461 0.00108663 0.00154116 0.00212768 0.00255453 0.00236153 0.00122027 -0.000731857 -0.00286167 -0.00442837 -0.00509083 -0.00503982 -0.00464313 -0.00402751 -0.00310033 -0.0019209 -0.000838146 -0.000190661 4.08618e-06 -4.20252e-05 -0.000140763 -0.000128425 0.000258539 0.00124924 0.00276461 0.0044165 0.00575292 0.00641688 0.00620089 0.00518893 0.00384894 0.0028081 0.00246167 0.00278096 0.0033449 0.00351978 0.00282195 0.00130363 -0.000382188 -0.00139495 -0.00130877 -0.00045085 0.0002798 8.5819e-05 -0.00105902 -0.00232247 -0.00266774 -0.00181522 -0.000600328 -0.000236981 -0.00111986 -0.00230415 -0.00240867 -0.00123819 -6.87076e-05 -0.00024185 -0.00147247 -0.00199756 -0.000967788 0.000218288 3.23428e-05 -0.000940009 -0.00105087 -0.000143977 0.000297842 -0.000210516 -0.000465008 -7.06662e-05 0.000118788 -5.64033e-05 -0.000100467 -1.29336e-06 1.81593e-05 -1.22871e-05 -8.82389e-06 -1.54703e-06 0 0 
0 0 -6.89985e-07 -7.06631e-06 -1.18403e-05 1.37308e-05 2.96212e-06 -9.15922e-05 -6.09225e-05 0.00011932 -8.97319e-05 -0.000514931 -0.000132564 0.000388676 -0.000448322 -0.00139775 -0.000636883 0.000467062 -0.000224363 -0.00202837 -0.00241891 -0.000795008 0.000334925 -0.00088958 -0.00294511 -0.00335719 -0.00183602 -0.000308208 -0.000632057 -0.00249904 -0.00393032 -0.00352674 -0.00173621 -0.000271455 -0.000435906 -0.00195051 -0.00335352 -0.00331172 -0.0016489 0.000601883 0.00210643 0.00221079 0.00131661 0.00051889 0.000813157 0.00248269 0.00498331 0.00730908 0.00858831 0.00848967 0.00732188 0.00579434 0.00462191 0.00421765 0.00454504 0.00519261 0.00560174 0.0052993 0.004075 0.00202852 -0.000487569 -0.00300207 -0.00505383 -0.00633611 -0.00674498 -0.00636881 -0.00539543 -0.00405582 -0.00257269 -0.00117155 -5.66876e-05 0.00061129 0.000765594 0.000443861 -0.000219382 -0.00104258 -0.00185385 -0.00251722 -0.00295547 -0.00313912 -0.0030787 -0.00281092 -0.00238096 -0.00183971 -0.00123786 -0.00061705 -1.20277e-05 0.000551495 0.00105557 0.00149319 0.00185941 0.00215983 0.00239806 0.00258248 0.00272042 0.00282018 0.00288826 0.00293503 0.00296527 0.00298595 0.00299074 0.00298653 0.00296606 0.00293568 0.00288866 0.00282052 0.00272085 0.00258276 0.00239797 0.00215972 0.00185936 0.00149279 0.00105516 0.00055327 -6.22013e-06 -0.000608469 -0.00123693 -0.00188006 -0.00253517 -0.00318815 -0.00377904 -0.00415222 -0.00404203 -0.00318226 -0.00152651 0.000546136 0.00225621 0.00283244 0.00205111 0.000453199 -0.00108325 -0.00211029 -0.0029158 -0.00403096 -0.00547021 -0.00664143 -0.00695562 -0.00634387 -0.00502707 -0.00310392 -0.000634827 0.00196505 0.0040402 0.00518446 0.00544713 0.00508524 0.00444918 0.00406805 0.00446019 0.00567466 0.00720757 0.0083501 0.00846582 0.00722674 0.0049028 0.00239702 0.000758653 0.000495207 0.00129024 0.00218524 0.00210767 0.000623814 -0.00162822 -0.00329406 -0.00332331 -0.00189769 -0.000373539 -0.000219347 -0.0016976 -0.00348675 -0.00387949 -0.00244138 -0.000578826 -0.000260911 -0.00177378 -0.00328009 -0.00287872 -0.000851076 0.000358944 -0.000758329 -0.00236604 -0.00198367 -0.000203053 0.000478295 -0.000616278 -0.0013719 -0.00043545 0.000390585 -0.000126694 -0.000506919 -8.79677e-05 0.000118699 -5.8914e-05 -9.08463e-05 -7.58169e-08 1.42545e-05 -3.72622e-06 -7.40868e-06 0 0 
0 0 -5.07242e-06 -4.51003e-06 7.37296e-06 5.07292e-06 -7.29655e-05 -6.78533e-05 0.000102673 -7.34269e-05 -0.000514931 -9.63337e-05 0.000427918 -0.000708997 -0.00156886 -0.000124761 0.000693247 -0.00116903 -0.00289081 -0.00191205 0.000272378 0.000119788 -0.0027383 -0.00444396 -0.00285156 -0.000415538 -0.000294591 -0.00274288 -0.00509732 -0.0048047 -0.00236011 -0.000443943 -0.000967771 -0.00342689 -0.00546776 -0.00518341 -0.00277374 -0.000102517 0.000916287 -0.000163855 -0.00208357 -0.00298852 -0.00174125 0.00136632 0.00493298 0.00741592 0.00804096 0.00715076 0.00586472 0.00536291 0.00626886 0.00835688 0.0107496 0.0123885 0.012482 0.0108196 0.00778198 0.00414394 0.000761288 -0.00171551 -0.00301501 -0.00324804 -0.00279431 -0.00214903 -0.00176176 -0.00193792 -0.00276191 -0.00405547 -0.00547517 -0.00663922 -0.00727112 -0.00728099 -0.00673729 -0.00577949 -0.00455069 -0.00317119 -0.00172585 -0.000293354 0.0010405 0.00219814 0.00312475 0.00377753 0.00415 0.00425445 0.00412606 0.00381052 0.00335544 0.00280836 0.00220957 0.00159479 0.00099405 0.000430831 -8.3531e-05 -0.000542173 -0.000941545 -0.00127609 -0.00154405 -0.00174611 -0.00188996 -0.00197645 -0.0020044 -0.00197578 -0.00188906 -0.00174532 -0.00154318 -0.00127491 -0.000940596 -0.000542003 -8.38619e-05 0.000430485 0.000993385 0.00159417 0.00221138 0.00281539 0.00336751 0.00381781 0.00409188 0.00409084 0.00371087 0.00290488 0.00177675 0.000627451 -0.000115354 -0.000191839 0.000179318 0.000226377 -0.000936814 -0.00352492 -0.00662861 -0.00872219 -0.00884074 -0.0073502 -0.00547091 -0.00407106 -0.00311287 -0.00229326 -0.00181129 -0.00207081 -0.00289209 -0.00346588 -0.00312454 -0.00174265 0.000631089 0.00392395 0.00762183 0.0107013 0.0122902 0.01216 0.010583 0.00821286 0.00608361 0.00519234 0.00575536 0.00704812 0.00792341 0.00734201 0.00490224 0.00132786 -0.00177864 -0.00298203 -0.0020548 -0.000146305 0.000937142 -5.34883e-05 -0.00269976 -0.00510823 -0.00540905 -0.00337352 -0.000903286 -0.000372811 -0.00230168 -0.00476019 -0.00504868 -0.00267082 -0.000245653 -0.000369444 -0.00278171 -0.0043557 -0.00266868 0.000155979 0.000301526 -0.0018626 -0.0028328 -0.00113157 0.000706124 -0.000108762 -0.00154052 -0.000691334 0.000430634 -9.20459e-05 -0.000507701 -6.99866e-05 0.000102716 -6.97843e-05 -7.2927e-05 1.12524e-05 6.45252e-06 -4.4571e-06 0 0 
0 0 -4.47173e-06 3.55273e-06 1.14e-05 -5.16507e-05 -7.42962e-05 7.29006e-05 -3.11623e-05 -0.000472375 -0.000132564 0.000427918 -0.000811812 -0.00161896 0.000331679 0.000645824 -0.00232751 -0.00314205 -0.00058097 0.000822878 -0.00141514 -0.00476897 -0.00449772 -0.000913915 0.000445736 -0.00239812 -0.00587635 -0.00620227 -0.00316744 -0.000394795 -0.00117601 -0.00465742 -0.00739653 -0.00684677 -0.00353346 -0.000540813 -0.000388744 -0.00296651 -0.00594103 -0.00662427 -0.00415005 0.000109457 0.0037745 0.00508717 0.00405065 0.00221778 0.00157095 0.00332601 0.00725591 0.0119722 0.0156934 0.0171281 0.0160412 0.0131576 0.0097522 0.0070497 0.00572658 0.00576852 0.00657189 0.00725711 0.00700977 0.00537587 0.00234103 -0.00166564 -0.00595442 -0.00981567 -0.0126782 -0.0141648 -0.0141022 -0.012513 -0.00966248 -0.00603409 -0.00227372 0.00102241 0.00341813 0.00473206 0.00501684 0.0044588 0.00331346 0.00182936 0.000212675 -0.0013771 -0.00282015 -0.0040452 -0.0050073 -0.00570651 -0.00614045 -0.00634222 -0.00634201 -0.00619204 -0.00591838 -0.00557691 -0.00518963 -0.00479453 -0.00441441 -0.00406868 -0.00376193 -0.0035157 -0.00333739 -0.00323344 -0.00319241 -0.00323302 -0.00333663 -0.0035145 -0.00375995 -0.00406642 -0.00441317 -0.00479472 -0.00519038 -0.00557797 -0.00591932 -0.0061904 -0.0063343 -0.006327 -0.00612529 -0.00572817 -0.00516458 -0.0045198 -0.00383917 -0.00306613 -0.00192595 -6.2642e-06 0.00293253 0.00648155 0.00935924 0.00989318 0.00714431 0.00180433 -0.00404965 -0.00846167 -0.0110252 -0.0126432 -0.0140093 -0.014552 -0.0132308 -0.00997291 -0.00581525 -0.00171599 0.00204624 0.00518426 0.0069884 0.00713296 0.00628034 0.00552994 0.00558386 0.00682453 0.00944469 0.012926 0.0158675 0.0168941 0.0154568 0.0118226 0.00712731 0.00316686 0.00146423 0.00217659 0.0039963 0.00503393 0.0037843 0.000146347 -0.00413782 -0.00659505 -0.00586517 -0.00287303 -0.000306198 -0.000468088 -0.00344962 -0.00674946 -0.00731308 -0.00460987 -0.00113763 -0.0003248 -0.00305293 -0.00607231 -0.00575371 -0.0023264 0.000481558 -0.000857661 -0.00439953 -0.00467091 -0.00136045 0.000848932 -0.000540828 -0.00307758 -0.00227601 0.000660316 0.000345566 -0.00158798 -0.000793945 0.000429311 -0.00012632 -0.000464176 -3.17962e-05 7.07569e-05 -6.87951e-05 -5.02388e-05 -6.19433e-06 5.6581e-06 0 0 
0 0 1.93171e-06 -1.80557e-06 -2.78063e-05 -6.70848e-05 3.33068e-05 1.07341e-05 -0.000386793 -0.000215938 0.000388676 -0.000708997 -0.00161896 0.000511913 0.000515253 -0.00324627 -0.00280876 0.000989582 0.000221117 -0.00385243 -0.00548528 -0.00267585 0.000890192 -0.000873553 -0.00613196 -0.00761017 -0.00418623 -0.000466341 -0.000825225 -0.00535276 -0.00911838 -0.00823081 -0.00404164 -0.000696325 -0.00147558 -0.0057127 -0.00944953 -0.00950057 -0.00568282 -0.000756119 0.00185284 0.000877577 -0.00227346 -0.00462842 -0.0037383 0.000740823 0.00710488 0.0127353 0.0156174 0.0153653 0.0131139 0.0108301 0.0101749 0.0117385 0.0149353 0.0183129 0.0202954 0.0197581 0.0164332 0.0109096 0.00434484 -0.00193958 -0.00687862 -0.00985126 -0.0108059 -0.0101156 -0.00845829 -0.00661739 -0.00514878 -0.00429014 -0.0039888 -0.00408574 -0.00444738 -0.00502884 -0.00580753 -0.00668722 -0.00750494 -0.00805587 -0.00815458 -0.00771011 -0.00676321 -0.00539366 -0.00374649 -0.00196772 -0.000188471 0.00149552 0.00301605 0.00432793 0.00540831 0.00626435 0.00691189 0.00737466 0.0076815 0.00786167 0.00795648 0.00798458 0.00797339 0.00794221 0.00791336 0.00788732 0.00787871 0.00788719 0.00791392 0.00794441 0.00797675 0.00798735 0.00795749 0.00786121 0.00768025 0.00737348 0.00691326 0.00627189 0.0054252 0.00435078 0.00301198 0.00136175 -0.000661994 -0.00307984 -0.00573487 -0.00813009 -0.00944692 -0.00889037 -0.00636946 -0.00294272 -0.00059363 -0.000926124 -0.00372297 -0.00682471 -0.00787638 -0.00647436 -0.0044966 -0.00407544 -0.00548282 -0.00739505 -0.00882724 -0.00994163 -0.0107467 -0.0101988 -0.00719839 -0.00197541 0.00425927 0.0105599 0.0160864 0.0195792 0.020055 0.0179214 0.01461 0.0115253 0.00989451 0.0105058 0.0129034 0.0152069 0.0154119 0.0125786 0.00705118 0.000673354 -0.00381093 -0.00461808 -0.00222474 0.000886351 0.00189376 -0.000648252 -0.00557382 -0.00941305 -0.00934601 -0.00558316 -0.0013442 -0.000606881 -0.00399758 -0.00817649 -0.00900451 -0.00519955 -0.000685063 -0.000366713 -0.00407244 -0.0074623 -0.00599769 -0.000799091 0.000939919 -0.00259569 -0.00537591 -0.00376279 0.000263088 0.00101469 -0.00274899 -0.00318278 0.000534708 0.00052401 -0.00159035 -0.000691372 0.00039281 -0.000211644 -0.000383725 1.4618e-05 3.63822e-05 -7.86374e-05 -3.6653e-05 1.93482e-06 0 0 