<?xml version="1.0"?>
<VTKFile type="ImageData" version="0.1" byte_order="LittleEndian">
<ImageData WholeExtent="0 199 0 199 0 0" Origin="0 0 0" Spacing="15 15 0">
<Piece Extent="0 199 0 199 0 0">
<PointData Scalars="Amplitude">
<DataArray type="Float32" Name="Amplitude" format="ascii">
0 0 0 0 0 0 0 0 0 0 0 0 0 0 0 0 0 0 0 0 0 0 0 0 0 0 0 0 0 0 0 0 0 0 0 0 0 0 0 0 0 0 0 0 0 0 0 0 0 0 0 0 0 0 0 0 0 0 0 0 0 0 0 0 0 0 0 0 0 0 0 0 0 0 0 0 0 0 0 0 0 0 0 0 0 0 0 0 0 0 0 0 0 0 0 0 0 0 0 0 0 0 0 0 0 0 0 0 0 0 0 0 0 0 0 0 0 0 0 0 0 0 0 0 0 0 0 0 0 0 0 0 0 0 0 0 0 0 0 0 0 0 0 0 0 0 0 0 0 0 0 0 0 0 0 0 0 0 0 0 0 0 0 0 0 0 0 0 0 0 0 0 0 0 0 0 0 0 0 0 0 0 0 0 0 0 0 0 0 0 0 0 0 0 0 0 0 0 0 0 
0 0 0 0 0 0 0 0 0 0 0 0 0 0 0 0 0 0 0 0 0 0 0 0 0 0 0 0 0 0 0 0 0 0 0 0 0 0 0 0 0 0 0 0 0 0 0 0 0 0 0 0 0 0 0 0 0 0 0 0 0 0 0 0 0 0 0 0 0 0 0 0 0 0 0 0 0 0 0 0 0 0 0 0 0 0 0 0 0 0 0 0 0 0 0 0 0 0 0 0 0 0 0 0 0 0 0 0 0 0 0 0 0 0 0 0 0 0 0 0 0 0 0 0 0 0 0 0 0 0 0 0 0 0 0 0 0 0 0 0 0 0 0 0 0 0 0 0 0 0 0 0 0 0 0 0 0 0 0 0 0 0 0 0 0 0 0 0 0 0 0 0 0 0 0 0 0 0 0 0 0 0 0 0 0 0 0 0 0 0 0 0 0 0 0 0 0 0 0 0 
0 0 6.31738e-25 2.08317e-24 8.86075e-25 -1.28442e-22 -8.64501e-22 -1.03376e-21 2.11339e-20 1.58898e-19 3.82026e-19 -1.64003e-18 -1.76289e-17 -6.3053e-17 -9.95213e-18 1.00492e-15 5.15296e-15 1.07958e-14 -1.57009e-14 -1.9971e-13 -7.16272e-13 -1.08133e-12 2.17951e-12 1.86341e-11 5.81846e-11 8.86432e-11 -8.03656e-11 -9.53418e-10 -3.21181e-09 -6.33198e-09 -4.49211e-09 2.05053e-08 1.03603e-07 2.79146e-07 5.05767e-07 4.9475e-07 -5.49096e-07 -4.12692e-06 -1.22074e-05 -2.59387e-05 -4.26716e-05 -5.11065e-05 -2.54546e-05 7.89764e-05 0.000325057 0.000784156 0.00151557 0.00253718 0.00379428 0.00513779 0.00632325 0.00703858 0.00696047 0.00582924 0.00352464 0.00012136 -0.00409288 -0.00864574 -0.012951 -0.0164075 -0.0185037 -0.0189068 -0.017517 -0.0144774 -0.0101429 -0.0050157 0.000336828 0.00536557 0.00960948 0.0127433 0.0145989 0.0151619 0.0145484 0.0129699 0.0106931 0.00800131 0.00516246 0.00240626 -8.9585e-05 -0.00220427 -0.00387114 -0.00507106 -0.00582229 -0.00616977 -0.00617475 -0.00590609 -0.00543311 -0.00482059 -0.00412557 -0.00339569 -0.00266892 -0.00197387 -0.00133098 -0.000753793 -0.000250448 0.000174933 0.000521068 0.000788217 0.000977626 0.00109061 0.00112815 0.00109061 0.000977626 0.000788217 0.000521068 0.000174933 -0.000250448 -0.000753793 -0.00133098 -0.00197387 -0.00266892 -0.00339569 -0.00412557 -0.00482059 -0.00543311 -0.00590609 -0.00617475 -0.00616977 -0.00582229 -0.00507106 -0.00387114 -0.00220427 -8.9585e-05 0.00240626 0.00516246 0.00800131 0.0106931 0.0129699 0.0145484 0.0151619 0.0145989 0.0127433 0.00960948 0.00536557 0.000336828 -0.0050157 -0.0101429 -0.0144774 -0.017517 -0.0189068 -0.0185037 -0.0164076 -0.0129511 -0.00864576 -0.00409289 0.000121351 0.00352462 0.00582922 0.00696046 0.00703859 0.00632325 0.0051378 0.00379428 0.00253717 0.00151557 0.000784156 0.000325056 7.89761e-05 -2.54548e-05 -5.11065e-05 -4.26715e-05 -2.59387e-05 -1.22074e-05 -4.12691e-06 -5.49093e-07 4.94751e-07 5.05768e-07 2.79147e-07 1.03603e-07 2.05051e-08 -4.49258e-09 -6.33279e-09 -3.21155e-09 -9.467e-10 -8.00446e-11 8.76536e-11 5.76078e-11 1.84572e-11 2.15877e-12 -1.07204e-12 -7.10079e-13 -1.9798e-13 -1.5552e-14 1.07118e-14 5.11159e-15 9.96654e-16 -9.97762e-18 -6.25794e-17 -1.74925e-17 -1.6265e-18 3.7937e-19 1.57721e-19 2.09714e-20 -1.02756e-21 -8.58137e-22 -1.30362e-22 -2.09826e-23 4.84835e-25 0 0 
0 0 2.08317e-24 -1.4882e-23 -1.23124e-22 -1.16437e-21 -3.00757e-21 2.08339e-20 2.23217e-19 7.54332e-19 -1.36903e-18 -2.57213e-17 -1.13452e-16 -1.06082e-16 1.48097e-15 9.26533e-15 2.35135e-14 -1.45153e-14 -3.63728e-13 -1.47885e-12 -2.63118e-12 3.34234e-12 3.8394e-11 1.29857e-10 2.1636e-10 -1.28257e-10 -2.08807e-09 -7.34247e-09 -1.48283e-08 -1.08295e-08 4.84087e-08 2.4722e-07 6.65667e-07 1.18708e-06 1.06167e-06 -1.73706e-06 -1.09506e-05 -3.12399e-05 -6.45391e-05 -0.000101975 -0.000111159 -2.17348e-05 0.000283843 0.000964256 0.0021886 0.00407807 0.00662883 0.00963825 0.0126649 0.0150516 0.0160247 0.0148594 0.0110758 0.00461028 -0.00408859 -0.0140779 -0.0240569 -0.0325943 -0.0383948 -0.040541 -0.0386575 -0.032965 -0.0242196 -0.0135591 -0.00229711 0.00828945 0.0171412 0.023536 0.0271385 0.027984 0.0264109 0.0229635 0.0182875 0.0130335 0.0077818 0.00299361 -0.00101179 -0.00405678 -0.00608947 -0.00715767 -0.00737872 -0.00691064 -0.00592694 -0.00459709 -0.00307313 -0.00148188 7.81825e-05 0.00153669 0.00284872 0.00399059 0.00495532 0.0057484 0.0063836 0.00687942 0.00725651 0.00753553 0.00773548 0.00787288 0.00796117 0.00801017 0.00802584 0.00801017 0.00796117 0.00787288 0.00773548 0.00753553 0.00725651 0.00687942 0.0063836 0.0057484 0.00495532 0.00399059 0.00284872 0.00153669 7.81825e-05 -0.00148188 -0.00307313 -0.00459709 -0.00592694 -0.00691064 -0.00737872 -0.00715767 -0.00608947 -0.00405678 -0.00101179 0.00299361 0.0077818 0.0130335 0.0182875 0.0229635 0.0264109 0.027984 0.0271385 0.023536 0.0171412 0.00828945 -0.00229711 -0.0135591 -0.0242196 -0.032965 -0.0386576 -0.0405412 -0.0383949 -0.0325944 -0.024057 -0.014078 -0.00408864 0.00461021 0.0110758 0.0148594 0.0160247 0.0150516 0.0126649 0.00963825 0.00662884 0.00407808 0.0021886 0.000964255 0.000283843 -2.17348e-05 -0.000111159 -0.000101975 -6.45392e-05 -3.124e-05 -1.09506e-05 -1.73706e-06 1.06167e-06 1.18708e-06 6.65667e-07 2.4722e-07 4.84068e-08 -1.08289e-08 -1.48123e-08 -7.27533e-09 -2.06801e-09 -1.27284e-10 2.14232e-10 1.28636e-10 3.804e-11 3.30984e-12 -2.60927e-12 -1.46636e-12 -3.60627e-13 -1.43597e-14 2.3332e-14 9.19176e-15 1.46881e-15 -1.0543e-16 -1.12602e-16 -2.55229e-17 -1.35703e-18 7.48981e-19 2.21563e-19 2.06717e-20 -2.98997e-21 -1.18985e-21 -2.70486e-22 -2.18309e-23 0 0 
0 0 8.86075e-25 -1.23124e-22 -7.21307e-22 -4.4223e-21 -2.41496e-21 1.32505e-19 8.81227e-19 1.5549e-18 -1.33432e-17 -1.1116e-16 -3.27876e-16 3.90427e-16 7.76207e-15 3.26815e-14 4.55671e-14 -2.22615e-13 -1.58532e-12 -4.57614e-12 -3.37346e-12 3.00802e-11 1.56187e-10 3.85652e-10 3.12499e-10 -1.65944e-09 -8.79006e-09 -2.30852e-08 -3.22645e-08 1.97371e-08 2.67432e-07 8.99431e-07 1.92285e-06 2.50365e-06 -1.97361e-07 -1.22131e-05 -4.2398e-05 -9.75807e-05 -0.0001698 -0.000213993 -0.000119808 0.000310632 0.0013597 0.00334548 0.00651706 0.0109065 0.016178 0.0215371 0.0257605 0.0273843 0.0250304 0.017803 0.00563941 -0.0104984 -0.0286725 -0.0462691 -0.060488 -0.0689035 -0.0699569 -0.0632657 -0.0496787 -0.0310869 -0.0100425 0.0107126 0.0287037 0.0420797 0.0498143 0.0517426 0.0484539 0.0410863 0.0310784 0.0199252 0.00897808 -0.000691315 -0.00836026 -0.0136617 -0.0165437 -0.0172013 -0.015996 -0.0133772 -0.00981514 -0.00574976 -0.00155714 0.00246787 0.00611544 0.0092563 0.0118296 0.0138292 0.0152893 0.0162702 0.0168468 0.0170999 0.0171094 0.016949 0.0166846 0.0163724 0.0160579 0.0157777 0.0155589 0.0154202 0.0153728 0.0154202 0.0155589 0.0157777 0.0160579 0.0163724 0.0166846 0.016949 0.0171094 0.0170999 0.0168468 0.0162702 0.0152893 0.0138292 0.0118296 0.0092563 0.00611544 0.00246787 -0.00155714 -0.00574976 -0.00981514 -0.0133772 -0.015996 -0.0172013 -0.0165437 -0.0136617 -0.00836026 -0.000691315 0.00897808 0.0199252 0.0310784 0.0410863 0.0484539 0.0517426 0.0498143 0.0420797 0.0287037 0.0107126 -0.0100425 -0.0310869 -0.0496788 -0.0632659 -0.0699573 -0.0689037 -0.0604881 -0.0462692 -0.0286725 -0.0104985 0.00563934 0.017803 0.0250305 0.0273844 0.0257606 0.0215371 0.0161781 0.0109065 0.00651706 0.00334548 0.0013597 0.000310632 -0.000119808 -0.000213993 -0.0001698 -9.75808e-05 -4.2398e-05 -1.22131e-05 -1.97362e-07 2.50365e-06 1.92285e-06 8.9943e-07 2.67429e-07 1.9749e-08 -3.21932e-08 -2.28879e-08 -8.70281e-09 -1.64359e-09 3.09352e-10 3.82024e-10 1.54753e-10 2.98043e-11 -3.34777e-12 -4.5379e-12 -1.57199e-12 -2.20674e-13 4.52349e-14 3.24254e-14 7.69987e-15 3.8676e-16 -3.25477e-16 -1.10315e-16 -1.32371e-17 1.54461e-18 8.74782e-19 1.31503e-19 -2.42291e-21 -4.53432e-21 -1.19064e-21 -1.35894e-22 0 0 
0 0 -1.28442e-22 -1.16437e-21 -4.4223e-21 -1.76264e-21 1.43339e-19 9.47489e-19 1.43582e-18 -1.74993e-17 -1.36771e-16 -3.6836e-16 8.30314e-16 1.13605e-14 4.40813e-14 4.12149e-14 -4.34434e-13 -2.58934e-12 -6.606e-12 -6.27178e-13 6.52472e-11 2.83439e-10 6.00881e-10 1.02461e-10 -4.27843e-09 -1.77596e-08 -3.99205e-08 -3.71301e-08 1.11117e-07 6.53057e-07 1.84042e-06 3.32799e-06 2.75069e-06 -6.40682e-06 -3.61375e-05 -0.000100565 -0.00020179 -0.000299184 -0.000262484 0.000177691 0.00145153 0.00410288 0.00864018 0.0152869 0.0236885 0.0326863 0.0402912 0.0439541 0.0411366 0.0300621 0.010431 -0.0161562 -0.0462423 -0.075085 -0.0976238 -0.109599 -0.108518 -0.0942056 -0.0688239 -0.0363691 -0.00180566 0.0299246 0.0547902 0.0702678 0.0755761 0.071552 0.0602548 0.0444319 0.0269676 0.0104245 -0.0032668 -0.0129481 -0.0182247 -0.019342 -0.017004 -0.012172 -0.00587936 0.000911357 0.00740434 0.0130182 0.0173937 0.0203739 0.0219654 0.0222932 0.0215562 0.0199894 0.0178321 0.0153071 0.0126069 0.00988819 0.00726977 0.00483629 0.0026419 0.000716466 -0.000927819 -0.0022916 -0.0033831 -0.00421386 -0.00479636 -0.0051412 -0.00525533 -0.0051412 -0.00479636 -0.00421386 -0.0033831 -0.0022916 -0.000927819 0.000716466 0.0026419 0.00483629 0.00726977 0.00988819 0.0126069 0.0153071 0.0178321 0.0199894 0.0215562 0.0222932 0.0219654 0.0203739 0.0173937 0.0130182 0.00740434 0.000911357 -0.00587936 -0.012172 -0.017004 -0.019342 -0.0182247 -0.0129481 -0.0032668 0.0104245 0.0269676 0.0444319 0.0602548 0.071552 0.0755761 0.0702678 0.0547902 0.0299245 -0.00180588 -0.0363693 -0.0688241 -0.094206 -0.108518 -0.1096 -0.0976239 -0.075085 -0.0462422 -0.016156 0.0104312 0.0300625 0.0411369 0.0439543 0.0402913 0.0326864 0.0236886 0.0152869 0.00864017 0.00410288 0.00145153 0.000177691 -0.000262484 -0.000299185 -0.000201791 -0.000100564 -3.61375e-05 -6.40682e-06 2.75069e-06 3.32799e-06 1.84045e-06 6.53198e-07 1.11471e-07 -3.66165e-08 -3.94887e-08 -1.75816e-08 -4.23727e-09 1.0163e-10 5.95491e-10 2.80928e-10 6.46688e-11 -6.28764e-13 -6.55261e-12 -2.56811e-12 -4.30777e-13 4.09423e-14 4.37429e-14 1.12712e-14 8.23153e-16 -3.65721e-16 -1.35746e-16 -1.73627e-17 1.42668e-18 9.4061e-19 1.42128e-19 -2.07038e-21 -3.01964e-21 -9.28352e-22 0 0 
0 0 -8.64501e-22 -3.00757e-21 -2.41496e-21 1.43339e-19 9.80676e-19 1.39774e-18 -2.06745e-17 -1.59683e-16 -4.06872e-16 1.31265e-15 1.54405e-14 5.69662e-14 2.96565e-14 -7.3449e-13 -3.96617e-12 -9.09895e-12 5.61574e-12 1.24565e-10 4.8378e-10 8.85173e-10 -5.39096e-10 -9.41044e-09 -3.36667e-08 -6.54966e-08 -2.62185e-08 3.26296e-07 1.42456e-06 3.517e-06 5.28647e-06 9.60249e-07 -2.33113e-05 -8.98001e-05 -0.000217451 -0.000385795 -0.000466039 -0.000127903 0.00123877 0.00451634 0.0106845 0.0204357 0.0336326 0.0487817 0.0627893 0.0712498 0.0693703 0.0533868 0.0220636 -0.0222587 -0.0735322 -0.122988 -0.161048 -0.179639 -0.174246 -0.145071 -0.0970115 -0.0384704 0.0205969 0.0708531 0.105407 0.120902 0.117709 0.099326 0.071238 0.039599 0.0100252 -0.0132679 -0.0278936 -0.0333005 -0.0304651 -0.0213954 -0.00858907 0.00545185 0.0185826 0.0292292 0.0364622 0.0399566 0.0398825 0.0367592 0.0313038 0.0243012 0.0165024 0.00855527 0.000969366 -0.00589544 -0.0118195 -0.0167058 -0.0205537 -0.0234303 -0.0254487 -0.0267467 -0.0274701 -0.0277616 -0.0277513 -0.0275547 -0.0272672 -0.0269662 -0.0267099 -0.0265396 -0.0264802 -0.0265396 -0.0267099 -0.0269662 -0.0272672 -0.0275547 -0.0277513 -0.0277616 -0.0274701 -0.0267467 -0.0254487 -0.0234303 -0.0205537 -0.0167058 -0.0118195 -0.00589544 0.000969366 0.00855527 0.0165024 0.0243012 0.0313038 0.0367592 0.0398825 0.0399566 0.0364622 0.0292292 0.0185826 0.00545185 -0.00858907 -0.0213954 -0.0304651 -0.0333005 -0.0278936 -0.0132679 0.0100252 0.039599 0.071238 0.099326 0.117709 0.120902 0.105407 0.0708529 0.0205967 -0.0384705 -0.0970117 -0.145072 -0.174246 -0.179639 -0.161047 -0.122988 -0.0735316 -0.0222579 0.0220641 0.0533873 0.0693705 0.0712499 0.0627895 0.0487818 0.0336326 0.0204358 0.0106845 0.00451635 0.00123878 -0.000127904 -0.00046604 -0.000385794 -0.000217451 -8.98002e-05 -2.33114e-05 9.60332e-07 5.28674e-06 3.51754e-06 1.42497e-06 3.24764e-07 -2.57397e-08 -6.48281e-08 -3.33436e-08 -9.32259e-09 -5.33695e-10 8.77582e-10 4.7963e-10 1.23493e-10 5.55751e-12 -9.02762e-12 -3.93438e-12 -7.2846e-13 2.95024e-14 5.65368e-14 1.53211e-14 1.30175e-15 -4.04009e-16 -1.58499e-16 -2.05154e-17 1.38888e-18 9.73368e-19 1.45421e-19 2.34324e-20 -1.01027e-21 0 0 
0 0 -1.03376e-21 2.08339e-20 1.32505e-19 9.47489e-19 1.39774e-18 -2.18297e-17 -1.72337e-16 -4.28982e-16 1.73459e-15 1.91291e-14 6.84893e-14 9.23772e-15 -1.09565e-12 -5.56593e-12 -1.15437e-11 1.68432e-11 2.1145e-10 7.56693e-10 1.17743e-09 -1.97071e-09 -1.82288e-08 -5.8459e-08 -9.76579e-08 2.69834e-08 7.60944e-07 2.78536e-06 6.10389e-06 7.18462e-06 -6.38592e-06 -6.122e-05 -0.000194104 -0.000420405 -0.000652763 -0.000561262 0.000592994 0.00405585 0.0114611 0.0243552 0.0433449 0.0670659 0.0914073 0.109531 0.113071 0.0944651 0.0498421 -0.0185822 -0.101635 -0.184477 -0.249942 -0.282976 -0.274805 -0.225483 -0.144015 -0.0460437 0.050096 0.127752 0.175531 0.189222 0.171779 0.131667 0.0802443 0.0289623 -0.0129226 -0.0397247 -0.0496813 -0.0444543 -0.0280704 -0.00566528 0.0176726 0.0377608 0.0518058 0.0585185 0.0579535 0.0511748 0.0398549 0.0258926 0.0111045 -0.00298243 -0.015245 -0.0249864 -0.0319035 -0.0360138 -0.0375666 -0.0369575 -0.0346502 -0.031118 -0.0268008 -0.0220799 -0.0172654 -0.0125963 -0.00824416 -0.00432318 -0.000900905 0.00198781 0.00433351 0.00613987 0.00741729 0.00817785 0.00843015 0.00817785 0.00741729 0.00613987 0.00433351 0.00198781 -0.000900905 -0.00432318 -0.00824416 -0.0125963 -0.0172654 -0.0220799 -0.0268008 -0.031118 -0.0346502 -0.0369575 -0.0375666 -0.0360138 -0.0319035 -0.0249864 -0.015245 -0.00298243 0.0111045 0.0258926 0.0398549 0.0511748 0.0579535 0.0585185 0.0518058 0.0377608 0.0176726 -0.00566528 -0.0280704 -0.0444543 -0.0496813 -0.0397247 -0.0129226 0.0289622 0.0802441 0.131668 0.171779 0.189222 0.175531 0.127752 0.0500956 -0.0460444 -0.144015 -0.225483 -0.274804 -0.282976 -0.249942 -0.184477 -0.101634 -0.0185818 0.0498427 0.0944657 0.113071 0.109531 0.0914074 0.0670659 0.043345 0.0243552 0.0114611 0.00405587 0.000592997 -0.000561262 -0.000652764 -0.000420406 -0.000194104 -6.12196e-05 -6.3851e-06 7.18459e-06 6.09832e-06 2.76516e-06 7.54083e-07 2.68192e-08 -9.67269e-08 -5.79215e-08 -1.80639e-08 -1.95225e-09 1.16778e-09 7.50385e-10 2.09676e-10 1.66885e-11 -1.14558e-11 -5.52216e-12 -1.08683e-12 9.26805e-15 6.79812e-14 1.89832e-14 1.72052e-15 -4.26004e-16 -1.71072e-16 -2.16638e-17 1.39214e-18 9.71581e-19 2.50468e-19 2.56559e-20 0 0 
0 0 2.11339e-20 2.23217e-19 8.81227e-19 1.43582e-18 -2.06745e-17 -1.72337e-16 -4.36024e-16 1.98264e-15 2.17163e-14 7.71089e-14 -1.47486e-14 -1.46559e-12 -7.20096e-12 -1.36106e-11 3.30679e-11 3.24143e-10 1.09163e-09 1.41053e-09 -4.52671e-09 -3.17997e-08 -9.35961e-08 -1.31606e-07 1.59781e-07 1.54026e-06 4.97551e-06 9.69643e-06 7.78746e-06 -2.48851e-05 -0.000135036 -0.000376085 -0.000735395 -0.000968449 -0.000339292 0.00264597 0.0103076 0.0253837 0.0499416 0.0837029 0.122325 0.15657 0.173314 0.158788 0.103472 0.00701693 -0.118922 -0.25161 -0.362248 -0.423798 -0.419043 -0.346064 -0.219194 -0.0651446 0.0843282 0.200769 0.26577 0.274379 0.234541 0.16337 0.0817038 0.00870784 -0.0421195 -0.0647924 -0.0605975 -0.036242 -0.00124011 0.0346866 0.0636373 0.0806766 0.0841048 0.0750217 0.0564772 0.0324918 0.00716569 -0.0159977 -0.0344735 -0.0468424 -0.0527159 -0.0525298 -0.0472799 -0.0382596 -0.0268334 -0.0142718 -0.00164075 0.010247 0.0208399 0.0298289 0.0371027 0.0426995 0.0467652 0.0495106 0.0511772 0.052012 0.0522476 0.0520946 0.0517318 0.0513032 0.0509177 0.0506539 0.0505604 0.0506539 0.0509177 0.0513032 0.0517318 0.0520946 0.0522476 0.052012 0.0511772 0.0495106 0.0467652 0.0426995 0.0371027 0.0298289 0.0208399 0.010247 -0.00164075 -0.0142718 -0.0268334 -0.0382596 -0.0472799 -0.0525298 -0.0527159 -0.0468424 -0.0344735 -0.0159977 0.00716569 0.0324918 0.0564772 0.0750217 0.0841048 0.0806766 0.0636373 0.0346866 -0.00124011 -0.036242 -0.0605975 -0.0647924 -0.0421195 0.00870823 0.0817033 0.163369 0.23454 0.274378 0.26577 0.200769 0.0843285 -0.0651456 -0.219194 -0.346064 -0.419043 -0.423798 -0.362248 -0.251609 -0.118922 0.00701772 0.103472 0.158788 0.173315 0.156571 0.122325 0.0837029 0.0499417 0.0253838 0.0103077 0.00264598 -0.000339287 -0.000968447 -0.000735396 -0.000376085 -0.000135037 -2.48966e-05 7.74742e-06 9.61118e-06 4.92666e-06 1.52552e-06 1.58279e-07 -1.30423e-07 -9.27673e-08 -3.15205e-08 -4.48593e-09 1.39952e-09 1.08276e-09 3.21481e-10 3.27788e-11 -1.35097e-11 -7.14525e-12 -1.45398e-12 -1.45148e-14 7.65445e-14 2.15525e-14 1.9668e-15 -4.33025e-16 -1.71079e-16 -2.04906e-17 1.52238e-18 8.22554e-19 1.9165e-19 0 0 
0 0 1.58898e-19 7.54332e-19 1.5549e-18 -1.74993e-17 -1.59683e-16 -4.28982e-16 1.98264e-15 2.2648e-14 8.17039e-14 -3.41442e-14 -1.77252e-12 -8.62661e-12 -1.50945e-11 5.24227e-11 4.52588e-10 1.46009e-09 1.51915e-09 -8.381e-09 -5.05348e-08 -1.38831e-07 -1.58882e-07 4.16735e-07 2.79972e-06 8.217e-06 1.41758e-05 5.01085e-06 -6.23207e-05 -0.000263264 -0.000663953 -0.00117177 -0.00122486 0.000651831 0.00722579 0.022471 0.0505409 0.0935699 0.148713 0.205665 0.246416 0.248672 0.192961 0.071426 -0.105232 -0.306357 -0.487372 -0.602102 -0.617308 -0.524041 -0.341415 -0.111299 0.114136 0.287477 0.37862 0.381032 0.310474 0.197638 0.0777911 -0.0190204 -0.0745574 -0.0845755 -0.056908 -0.00694199 0.0477657 0.0921455 0.116573 0.117824 0.0983586 0.0645157 0.0243465 -0.0143662 -0.0455155 -0.0653811 -0.0727234 -0.0684109 -0.0547797 -0.0349291 -0.0121008 0.0107987 0.0314843 0.0484115 0.0607676 0.0683628 0.0714838 0.0707352 0.0668887 0.0607678 0.0531589 0.0447567 0.0361342 0.0277367 0.0198871 0.0128006 0.00660855 0.0013796 -0.00286689 -0.00613704 -0.0084512 -0.00983028 -0.0102877 -0.00983028 -0.0084512 -0.00613704 -0.00286689 0.0013796 0.00660855 0.0128006 0.0198871 0.0277367 0.0361342 0.0447567 0.0531589 0.0607678 0.0668887 0.0707352 0.0714838 0.0683628 0.0607676 0.0484115 0.0314843 0.0107987 -0.0121008 -0.0349291 -0.0547797 -0.0684109 -0.0727234 -0.0653811 -0.0455155 -0.0143662 0.0243465 0.0645157 0.0983586 0.117824 0.116573 0.0921455 0.0477656 -0.00694202 -0.0569079 -0.0845755 -0.0745578 -0.0190202 0.07779 0.197637 0.310475 0.381033 0.37862 0.287475 0.114134 -0.111299 -0.341415 -0.524039 -0.617306 -0.602099 -0.48737 -0.306356 -0.105231 0.0714262 0.192961 0.248673 0.246416 0.205665 0.148713 0.09357 0.050541 0.022471 0.00722583 0.000651845 -0.00122486 -0.00117177 -0.000663976 -0.000263328 -6.24438e-05 4.89149e-06 1.40273e-05 8.13767e-06 2.77357e-06 4.12851e-07 -1.57535e-07 -1.37641e-07 -5.01027e-08 -8.30776e-09 1.50793e-09 1.44848e-09 4.4894e-10 5.1978e-11 -1.49854e-11 -8.56084e-12 -1.75868e-12 -3.37528e-14 8.11121e-14 2.24788e-14 1.96697e-15 -4.26015e-16 -1.58447e-16 -1.76595e-17 -2.10876e-18 4.2562e-19 0 0 
0 0 3.82026e-19 -1.36903e-18 -1.33432e-17 -1.36771e-16 -4.06872e-16 1.73459e-15 2.17163e-14 8.17039e-14 -4.15944e-14 -1.94724e-12 -9.60097e-12 -1.59743e-11 7.12455e-11 5.7885e-10 1.81938e-09 1.4731e-09 -1.33782e-08 -7.3697e-08 -1.91632e-07 -1.69361e-07 8.3625e-07 4.64256e-06 1.26356e-05 1.91471e-05 -3.97124e-06 -0.000127875 -0.00046529 -0.00108001 -0.00170714 -0.00121428 0.00310276 0.0159881 0.04374 0.0920338 0.161911 0.245041 0.320729 0.35766 0.322088 0.191207 -0.0331088 -0.316874 -0.59816 -0.803625 -0.872286 -0.777466 -0.537774 -0.212343 0.11799 0.376257 0.512087 0.513882 0.40733 0.242547 0.0757414 -0.0478486 -0.104533 -0.0944131 -0.0362543 0.0417943 0.112006 0.154479 0.160693 0.13319 0.0825152 0.0229035 -0.0318641 -0.0714655 -0.0905094 -0.0885475 -0.0690591 -0.0379132 -0.0017786 0.0332061 0.0622933 0.082518 0.0926969 0.093144 0.0852465 0.0710071 0.0526449 0.0322719 0.0116957 -0.00769576 -0.0249514 -0.0395412 -0.0512711 -0.0602011 -0.0665857 -0.0707833 -0.0732095 -0.074279 -0.0743905 -0.0738958 -0.0730988 -0.0722359 -0.0714907 -0.0709902 -0.0708136 -0.0709902 -0.0714907 -0.0722359 -0.0730988 -0.0738958 -0.0743905 -0.074279 -0.0732095 -0.0707833 -0.0665857 -0.0602011 -0.0512711 -0.0395412 -0.0249514 -0.00769576 0.0116957 0.0322719 0.0526449 0.0710071 0.0852465 0.093144 0.0926969 0.082518 0.0622933 0.0332061 -0.0017786 -0.0379132 -0.0690591 -0.0885475 -0.0905094 -0.0714655 -0.0318641 0.0229035 0.0825152 0.13319 0.160692 0.154479 0.112006 0.0417946 -0.0362543 -0.0944126 -0.104534 -0.0478474 0.0757424 0.242548 0.40733 0.51388 0.51209 0.376257 0.117993 -0.212338 -0.53777 -0.777464 -0.872284 -0.803621 -0.598158 -0.316873 -0.0331088 0.191208 0.322088 0.35766 0.320729 0.245041 0.161911 0.0920338 0.0437401 0.0159881 0.00310277 -0.00121431 -0.00170724 -0.00108017 -0.000465312 -0.000127183 -3.98796e-06 1.89609e-05 1.25188e-05 4.60056e-06 8.28656e-07 -1.68016e-07 -1.90037e-07 -7.30815e-08 -1.32641e-08 1.46296e-09 1.80519e-09 5.74258e-10 7.0654e-11 -1.58614e-11 -9.52866e-12 -1.93221e-12 -4.11484e-14 8.1117e-14 2.15554e-14 1.72104e-15 -4.0433e-16 -1.39997e-16 -3.35011e-17 -2.50982e-18 0 0 
0 0 -1.64003e-18 -2.57213e-17 -1.1116e-16 -3.6836e-16 1.31265e-15 1.91291e-14 7.71089e-14 -3.41442e-14 -1.94724e-12 -9.9473e-12 -1.63597e-11 8.50511e-11 6.80706e-10 2.12122e-09 1.30227e-09 -1.89336e-08 -9.9131e-08 -2.47254e-07 -1.55371e-07 1.43074e-06 7.0852e-06 1.81618e-05 2.3918e-05 -2.22784e-05 -0.000230401 -0.000757064 -0.00163263 -0.00227748 -0.000628185 0.00790398 0.0309035 0.0776577 0.155058 0.260899 0.376979 0.466456 0.479998 0.372116 0.123417 -0.240915 -0.647259 -0.990336 -1.16708 -1.11489 -0.83759 -0.407329 0.0595486 0.442495 0.656383 0.67557 0.534795 0.309424 0.0850118 -0.0714229 -0.128671 -0.0935843 -0.000649235 0.104856 0.183335 0.211721 0.186791 0.121771 0.0390575 -0.0379723 -0.0913833 -0.112144 -0.100428 -0.0636308 -0.0131331 0.039002 0.0826371 0.111079 0.12154 0.114709 0.093809 0.0634731 0.0286924 -0.00600718 -0.0370541 -0.0620505 -0.0797785 -0.0900179 -0.0933094 -0.0906883 -0.0834321 -0.0728862 -0.060301 -0.046757 -0.0331321 -0.0200871 -0.00807537 0.00262288 0.0118591 0.0195658 0.025758 0.0304827 0.0338063 0.0357817 0.036433 0.0357817 0.0338063 0.0304827 0.025758 0.0195658 0.0118591 0.00262288 -0.00807537 -0.0200871 -0.0331321 -0.046757 -0.060301 -0.0728862 -0.0834321 -0.0906883 -0.0933094 -0.0900179 -0.0797785 -0.0620505 -0.0370541 -0.00600718 0.0286924 0.0634731 0.093809 0.114709 0.12154 0.111079 0.0826371 0.039002 -0.0131331 -0.0636308 -0.100428 -0.112144 -0.0913833 -0.0379729 0.0390565 0.121771 0.186791 0.211723 0.183336 0.104856 -0.000649619 -0.093584 -0.128671 -0.0714242 0.0850116 0.309422 0.534793 0.675567 0.656387 0.4425 0.0595541 -0.407323 -0.837588 -1.11488 -1.16708 -0.990333 -0.647258 -0.240914 0.123416 0.372115 0.479996 0.466454 0.376978 0.260899 0.155058 0.0776575 0.0309035 0.0079039 -0.000628353 -0.00227735 -0.00163096 -0.000751753 -0.000228351 -2.20818e-05 2.3701e-05 1.80004e-05 7.02298e-06 1.41808e-06 -1.54247e-07 -2.45247e-07 -9.83191e-08 -1.87754e-08 1.29415e-09 2.10494e-09 6.75379e-10 8.43565e-11 -1.62458e-11 -9.87312e-12 -1.93236e-12 -3.37653e-14 7.65583e-14 1.89882e-14 1.29897e-15 -3.83282e-16 -1.41701e-16 -2.4611e-17 0 0 
0 0 -1.76289e-17 -1.13452e-16 -3.27876e-16 8.30314e-16 1.54405e-14 6.84893e-14 -1.47486e-14 -1.77252e-12 -9.60097e-12 -1.63597e-11 9.01323e-11 7.37749e-10 2.3222e-09 1.0933e-09 -2.40922e-08 -1.23442e-07 -2.9955e-07 -1.1641e-07 2.16733e-06 1.00084e-05 2.44829e-05 2.76206e-05 -5.24614e-05 -0.000376049 -0.00114629 -0.00231057 -0.00278 0.000903515 0.0160114 0.0539283 0.127458 0.243802 0.394184 0.544721 0.63584 0.596456 0.372581 -0.0394785 -0.572364 -1.09494 -1.45129 -1.5187 -1.25933 -0.740683 -0.113716 0.442939 0.787666 0.86237 0.702861 0.413066 0.117967 -0.0833819 -0.146743 -0.0863203 0.043119 0.174507 0.254526 0.258919 0.194387 0.0896859 -0.0183464 -0.098016 -0.131284 -0.116172 -0.0640079 0.00638042 0.0750223 0.125923 0.149938 0.14528 0.116266 0.0710772 0.0192901 -0.0301847 -0.0704951 -0.0974859 -0.109669 -0.10782 -0.0942574 -0.0721591 -0.0449157 -0.0156648 0.012979 0.0391098 0.0615079 0.0795872 0.0932503 0.102766 0.108656 0.111554 0.112151 0.111108 0.109032 0.106443 0.103782 0.101379 0.0994917 0.0982899 0.0978781 0.0982899 0.0994917 0.101379 0.103782 0.106443 0.109032 0.111108 0.112151 0.111554 0.108656 0.102766 0.0932503 0.0795872 0.0615079 0.0391098 0.012979 -0.0156648 -0.0449157 -0.0721591 -0.0942574 -0.10782 -0.109669 -0.0974859 -0.0704951 -0.0301847 0.0192901 0.0710772 0.116266 0.14528 0.149938 0.125923 0.0750223 0.00638041 -0.0640083 -0.116173 -0.131284 -0.0980155 -0.0183447 0.0896891 0.19439 0.258919 0.254524 0.174504 0.0431167 -0.0863173 -0.146742 -0.0833814 0.117964 0.413074 0.702867 0.862373 0.787672 0.442945 -0.11371 -0.740684 -1.25933 -1.5187 -1.45129 -1.09494 -0.572366 -0.0394794 0.372579 0.596454 0.635837 0.544718 0.394183 0.2438 0.127458 0.0539282 0.0160118 0.000906287 -0.00277119 -0.00229209 -0.00113559 -0.00037256 -5.19713e-05 2.73841e-05 2.42724e-05 9.92271e-06 2.14858e-06 -1.15709e-07 -2.97171e-07 -1.22448e-07 -2.38942e-08 1.08733e-09 2.30461e-09 7.32044e-10 8.94055e-11 -1.62468e-11 -9.53001e-12 -1.75908e-12 -1.4534e-14 6.79994e-14 1.5314e-14 8.1625e-16 -7.11361e-17 -8.29267e-17 0 0 
0 0 -6.3053e-17 -1.06082e-16 3.90427e-16 1.13605e-14 5.69662e-14 9.23772e-15 -1.46559e-12 -8.62661e-12 -1.59743e-11 8.50511e-11 7.37749e-10 2.39266e-09 9.52496e-10 -2.77702e-08 -1.42675e-07 -3.42235e-07 -6.17508e-08 2.95944e-06 1.3138e-05 3.10572e-05 2.9542e-05 -9.51141e-05 -0.00056485 -0.00162839 -0.00308253 -0.00309373 0.00372898 0.0282218 0.0865292 0.195237 0.360241 0.561764 0.743398 0.816322 0.686182 0.29842 -0.317048 -1.02864 -1.63249 -1.92472 -1.78724 -1.24512 -0.4644 0.311666 0.858727 1.05505 0.916183 0.570123 0.190911 -0.075266 -0.159589 -0.0799528 0.0855963 0.242808 0.321481 0.29712 0.190236 0.049087 -0.0737159 -0.140692 -0.139135 -0.0803211 0.00893293 0.0975352 0.159992 0.182317 0.163306 0.112156 0.0439747 -0.0249878 -0.0811489 -0.115831 -0.125923 -0.113098 -0.0824679 -0.0408735 0.00464208 0.0479466 0.0844818 0.111471 0.127816 0.133802 0.130666 0.12022 0.104476 0.0854061 0.0647312 0.0438659 0.0238803 0.0054937 -0.0108505 -0.0249561 -0.0367972 -0.0464153 -0.0539631 -0.0596096 -0.0635212 -0.065824 -0.066573 -0.065824 -0.0635212 -0.0596096 -0.0539631 -0.0464153 -0.0367972 -0.0249561 -0.0108505 0.0054937 0.0238803 0.0438659 0.0647312 0.0854061 0.104476 0.12022 0.130666 0.133802 0.127816 0.111471 0.0844818 0.0479466 0.00464208 -0.0408735 -0.0824679 -0.113098 -0.125923 -0.115831 -0.0811489 -0.0249878 0.0439747 0.112156 0.163306 0.182317 0.159991 0.0975348 0.00893387 -0.0803191 -0.139133 -0.14069 -0.0737152 0.0490844 0.190232 0.297119 0.321485 0.242811 0.0855985 -0.0799494 -0.159591 -0.0752667 0.190907 0.570121 0.916182 1.05506 0.858728 0.311665 -0.464396 -1.24512 -1.78724 -1.92473 -1.6325 -1.02865 -0.317053 0.298417 0.686176 0.816316 0.743393 0.56176 0.36024 0.195237 0.0865331 0.028234 0.00375378 -0.00306115 -0.0030529 -0.00161333 -0.000559722 -9.42417e-05 2.93024e-05 3.07972e-05 1.30278e-05 2.93432e-06 -6.15843e-08 -3.39566e-07 -1.41543e-07 -2.75451e-08 9.47924e-10 2.37476e-09 7.32102e-10 8.43714e-11 -1.58643e-11 -8.56331e-12 -1.45456e-12 9.24166e-15 5.6555e-14 1.15789e-14 2.36788e-15 3.81871e-17 0 0 
0 0 -9.95213e-18 1.48097e-15 7.76207e-15 4.40813e-14 2.96565e-14 -1.09565e-12 -7.20096e-12 -1.50945e-11 7.12455e-11 6.80706e-10 2.3222e-09 9.52496e-10 -2.91057e-08 -1.53323e-07 -3.70091e-07 -8.6504e-09 3.67785e-06 1.60731e-05 3.71975e-05 2.94685e-05 -0.000147588 -0.000786945 -0.002181 -0.00390166 -0.00311435 0.00806226 0.0449061 0.129172 0.281154 0.503193 0.759292 0.963367 0.991934 0.729126 0.132596 -0.712172 -1.58767 -2.2096 -2.34228 -1.91004 -1.04414 -0.0347179 0.791331 1.20601 1.16329 0.793918 0.324234 -0.0336738 -0.165965 -0.0824557 0.116145 0.302466 0.383387 0.332119 0.185008 0.012713 -0.115605 -0.159443 -0.116682 -0.0167398 0.0962023 0.18118 0.213329 0.188315 0.119519 0.0304803 -0.0536932 -0.113283 -0.137797 -0.126453 -0.0862482 -0.028788 0.0331987 0.0884999 0.129156 0.151072 0.15372 0.13937 0.112027 0.0764401 0.0372552 -0.00157075 -0.0369871 -0.0670173 -0.0906678 -0.107752 -0.118653 -0.124157 -0.125285 -0.123066 -0.118555 -0.11266 -0.106182 -0.099762 -0.0939067 -0.0890071 -0.0853274 -0.0830529 -0.0822896 -0.0830529 -0.0853274 -0.0890071 -0.0939067 -0.099762 -0.106182 -0.11266 -0.118555 -0.123066 -0.125285 -0.124157 -0.118653 -0.107752 -0.0906678 -0.0670173 -0.0369871 -0.00157075 0.0372552 0.0764401 0.112027 0.13937 0.15372 0.151072 0.129156 0.0884999 0.0331987 -0.028788 -0.0862482 -0.126453 -0.137797 -0.113283 -0.0536938 0.0304794 0.119518 0.188316 0.213331 0.181183 0.0962047 -0.0167393 -0.116685 -0.15945 -0.115606 0.0127179 0.185008 0.33212 0.383385 0.302461 0.116132 -0.0824611 -0.165962 -0.0336738 0.324243 0.79392 1.1633 1.20601 0.791336 -0.034708 -1.04413 -1.91004 -2.34228 -2.2096 -1.58768 -0.712185 0.132589 0.729118 0.991925 0.963362 0.759292 0.5032 0.281169 0.129201 0.0449353 0.00803655 -0.00308094 -0.00386582 -0.00216149 -0.000779985 -0.000146265 2.92422e-05 3.68931e-05 1.59407e-05 3.64716e-06 -8.97463e-09 -3.67247e-07 -1.52121e-07 -2.88725e-08 9.47967e-10 2.30497e-09 6.75544e-10 7.06794e-11 -1.49902e-11 -7.14844e-12 -1.08746e-12 2.97082e-14 4.54926e-14 1.36166e-14 1.70092e-15 0 0 