<?xml version="1.0"?>
<VTKFile type="ImageData" version="0.1" byte_order="LittleEndian">
<ImageData WholeExtent="0 199 0 199 0 0" Origin="0 0 0" Spacing="15 15 0">
<Piece Extent="0 199 0 199 0 0">
<PointData Scalars="Amplitude">
<DataArray type="Float32" Name="Amplitude" format="ascii">
0 0 0 0 0 0 0 0 0 0 0 0 0 0 0 0 0 0 0 0 0 0 0 0 0 0 0 0 0 0 0 0 0 0 0 0 0 0 0 0 0 0 0 0 0 0 0 0 0 0 0 0 0 0 0 0 0 0 0 0 0 0 0 0 0 0 0 0 0 0 0 0 0 0 0 0 0 0 0 0 0 0 0 0 0 0 0 0 0 0 0 0 0 0 0 0 0 0 0 0 0 0 0 0 0 0 0 0 0 0 0 0 0 0 0 0 0 0 0 0 0 0 0 0 0 0 0 0 0 0 0 0 0 0 0 0 0 0 0 0 0 0 0 0 0 0 0 0 0 0 0 0 0 0 0 0 0 0 0 0 0 0 0 0 0 0 0 0 0 0 0 0 0 0 0 0 0 0 0 0 0 0 0 0 0 0 0 0 0 0 0 0 0 0 0 0 0 0 0 0 
0 0 0 0 0 0 0 0 0 0 0 0 0 0 0 0 0 0 0 0 0 0 0 0 0 0 0 0 0 0 0 0 0 0 0 0 0 0 0 0 0 0 0 0 0 0 0 0 0 0 0 0 0 0 0 0 0 0 0 0 0 0 0 0 0 0 0 0 0 0 0 0 0 0 0 0 0 0 0 0 0 0 0 0 0 0 0 0 0 0 0 0 0 0 0 0 0 0 0 0 0 0 0 0 0 0 0 0 0 0 0 0 0 0 0 0 0 0 0 0 0 0 0 0 0 0 0 0 0 0 0 0 0 0 0 0 0 0 0 0 0 0 0 0 0 0 0 0 0 0 0 0 0 0 0 0 0 0 0 0 0 0 0 0 0 0 0 0 0 0 0 0 0 0 0 0 0 0 0 0 0 0 0 0 0 0 0 0 0 0 0 0 0 0 0 0 0 0 0 0 
0 0 4.27184e-43 4.01207e-42 1.56153e-41 -6.98653e-41 -1.17284e-39 -2.45999e-39 4.13891e-38 3.06641e-37 -1.34261e-37 -1.16633e-35 -4.98387e-35 1.2998e-34 1.99715e-33 5.38339e-33 -2.53616e-32 -2.29582e-31 -4.24427e-31 2.77368e-30 1.90648e-29 2.82037e-29 -2.00321e-28 -1.22484e-27 -1.82492e-27 1.02571e-26 6.51991e-26 1.2074e-25 -3.63815e-25 -2.97765e-24 -7.56517e-24 4.74036e-24 1.0744e-22 3.90882e-22 4.42164e-22 -2.3607e-21 -1.46445e-20 -3.80332e-20 -1.56392e-20 3.04978e-19 1.45945e-18 3.44921e-18 1.69569e-18 -2.27401e-17 -1.11185e-16 -2.87249e-16 -3.44152e-16 7.06277e-16 5.37717e-15 1.71836e-14 3.45309e-14 3.15361e-14 -7.895e-14 -4.82719e-13 -1.42691e-12 -2.94095e-12 -4.07739e-12 -1.528e-12 1.20525e-11 4.86487e-11 1.21563e-10 2.34059e-10 3.56097e-10 3.88714e-10 1.2318e-10 -7.86695e-10 -2.80904e-09 -6.43867e-09 -1.19906e-08 -1.92719e-08 -2.71597e-08 -3.3156e-08 -3.30365e-08 -2.07289e-08 1.14536e-08 7.21434e-08 1.69822e-07 3.11395e-07 5.00633e-07 7.36735e-07 1.01329e-06 1.31787e-06 1.63237e-06 1.93418e-06 2.1981e-06 2.39857e-06 2.51237e-06 2.52095e-06 2.41259e-06 2.18373e-06 1.83976e-06 1.3947e-06 8.70452e-07 2.95148e-07 -2.98824e-07 -8.77124e-07 -1.40582e-06 -1.85365e-06 -2.19402e-06 -2.4067e-06 -2.47902e-06 -2.4067e-06 -2.19402e-06 -1.85365e-06 -1.40582e-06 -8.77124e-07 -2.98824e-07 2.95148e-07 8.70452e-07 1.3947e-06 1.83976e-06 2.18373e-06 2.41259e-06 2.52095e-06 2.51237e-06 2.39857e-06 2.1981e-06 1.93418e-06 1.63237e-06 1.31787e-06 1.01329e-06 7.36735e-07 5.00633e-07 3.11395e-07 1.69822e-07 7.21434e-08 1.14536e-08 -2.07289e-08 -3.30365e-08 -3.3156e-08 -2.71597e-08 -1.92719e-08 -1.19906e-08 -6.43867e-09 -2.80904e-09 -7.86695e-10 1.2318e-10 3.88714e-10 3.56097e-10 2.34059e-10 1.21563e-10 4.86487e-11 1.20525e-11 -1.528e-12 -4.07739e-12 -2.94095e-12 -1.42691e-12 -4.82719e-13 -7.895e-14 3.15361e-14 3.45309e-14 1.71836e-14 5.37717e-15 7.06277e-16 -3.44152e-16 -2.87249e-16 -1.11185e-16 -2.27401e-17 1.6957e-18 3.44921e-18 1.45945e-18 3.04978e-19 -1.56391e-20 -3.80332e-20 -1.46445e-20 -2.36069e-21 4.42163e-22 3.90882e-22 1.0744e-22 4.74036e-24 -7.56517e-24 -2.97772e-24 -3.64318e-25 1.19294e-25 6.45669e-26 1.01693e-26 -1.80972e-27 -1.21515e-27 -1.98772e-28 2.79968e-29 1.8925e-29 2.75331e-30 -4.21538e-31 -2.27989e-31 -2.51831e-32 5.34815e-33 1.98385e-33 1.29086e-34 -4.95208e-35 -1.15881e-35 -1.33211e-37 3.04729e-37 4.11287e-38 -2.44533e-39 -1.1653e-39 -6.9391e-41 -1.06192e-42 2.52528e-42 0 0 
0 0 4.01207e-42 1.23057e-41 -2.78373e-41 -1.60252e-39 -6.6009e-39 4.45952e-38 5.15917e-37 6.67924e-37 -1.64887e-35 -1.01175e-34 6.84602e-35 3.35405e-33 1.30631e-32 -2.91815e-32 -4.37863e-31 -1.20392e-30 4.05395e-30 3.98916e-29 8.77352e-29 -3.29711e-28 -2.71627e-27 -5.62542e-27 1.75956e-26 1.47386e-25 3.4021e-25 -5.88977e-25 -6.68318e-24 -1.9498e-23 1.94521e-24 2.37748e-22 9.56012e-22 1.30065e-21 -5.02702e-21 -3.50818e-20 -9.6215e-20 -5.22521e-20 7.33829e-19 3.65351e-18 8.75516e-18 4.06277e-18 -6.03764e-17 -2.92245e-16 -7.39278e-16 -7.86191e-16 2.36652e-15 1.55611e-14 4.72557e-14 8.77589e-14 5.11175e-14 -3.28665e-13 -1.57551e-12 -4.26141e-12 -7.97079e-12 -8.76338e-12 5.01123e-12 5.67698e-11 1.80101e-10 4.01235e-10 6.92445e-10 8.87478e-10 5.66969e-10 -1.04629e-09 -5.10063e-09 -1.29202e-08 -2.5477e-08 -4.24542e-08 -6.09354e-08 -7.39194e-08 -6.90377e-08 -2.79824e-08 7.28265e-08 2.59943e-07 5.58857e-07 9.88498e-07 1.555e-06 2.24568e-06 3.02459e-06 3.83037e-06 4.57757e-06 5.16136e-06 5.46549e-06 5.37273e-06 4.77622e-06 3.59075e-06 1.76231e-06 -7.2508e-07 -3.84587e-06 -7.53311e-06 -1.16822e-05 -1.61572e-05 -2.07989e-05 -2.54351e-05 -2.98896e-05 -3.39915e-05 -3.75835e-05 -4.05285e-05 -4.27148e-05 -4.40602e-05 -4.45143e-05 -4.40602e-05 -4.27148e-05 -4.05285e-05 -3.75835e-05 -3.39915e-05 -2.98896e-05 -2.54351e-05 -2.07989e-05 -1.61572e-05 -1.16822e-05 -7.53311e-06 -3.84587e-06 -7.2508e-07 1.76231e-06 3.59075e-06 4.77622e-06 5.37273e-06 5.46549e-06 5.16136e-06 4.57757e-06 3.83037e-06 3.02459e-06 2.24568e-06 1.555e-06 9.88498e-07 5.58857e-07 2.59943e-07 7.28265e-08 -2.79824e-08 -6.90377e-08 -7.39194e-08 -6.09354e-08 -4.24542e-08 -2.5477e-08 -1.29202e-08 -5.10063e-09 -1.04629e-09 5.66969e-10 8.87478e-10 6.92445e-10 4.01235e-10 1.80101e-10 5.67698e-11 5.01123e-12 -8.76338e-12 -7.97079e-12 -4.26141e-12 -1.57551e-12 -3.28665e-13 5.11175e-14 8.77589e-14 4.72557e-14 1.55611e-14 2.36652e-15 -7.86191e-16 -7.39277e-16 -2.92245e-16 -6.03764e-17 4.0628e-18 8.75514e-18 3.65351e-18 7.33828e-19 -5.22521e-20 -9.62149e-20 -3.50818e-20 -5.02701e-21 1.30065e-21 9.56013e-22 2.37748e-22 1.94505e-24 -1.9499e-23 -6.68586e-24 -5.89422e-25 3.36621e-25 1.46123e-25 1.74508e-26 -5.58174e-27 -2.69544e-27 -3.27179e-28 8.71085e-29 3.96045e-29 4.02423e-30 -1.19578e-30 -4.34861e-31 -2.89737e-32 1.29779e-32 3.33189e-33 6.7943e-35 -1.00532e-34 -1.63828e-35 6.64015e-37 5.1271e-37 4.43155e-38 -6.55964e-39 -1.6212e-39 -2.68435e-40 -8.95806e-43 0 0 
0 0 1.56153e-41 -2.78373e-41 -5.69089e-40 -7.95955e-39 -1.06085e-38 3.2414e-37 2.03554e-36 -3.3475e-36 -9.16288e-35 -3.09244e-34 1.50683e-33 1.58497e-32 2.87302e-32 -2.75809e-31 -1.8465e-30 -1.71493e-30 3.04575e-29 1.56262e-28 8.36953e-29 -2.28943e-27 -1.03257e-26 -5.85407e-27 1.25695e-25 5.70525e-25 5.54513e-25 -5.21154e-24 -2.77068e-23 -4.7007e-23 1.41617e-22 1.12601e-21 3.01968e-21 1.43256e-23 -3.27093e-20 -1.37879e-19 -2.45309e-19 3.50442e-19 3.91863e-18 1.34027e-17 2.07226e-17 -3.31119e-17 -3.23439e-16 -1.09173e-15 -1.9599e-15 3.77913e-16 1.63649e-14 6.46642e-14 1.5063e-13 1.81548e-13 -2.20774e-13 -1.94773e-12 -6.29252e-12 -1.35504e-11 -1.88595e-11 -4.2831e-12 7.07965e-11 2.71779e-10 6.6368e-10 1.23e-09 1.71055e-09 1.36298e-09 -1.28129e-09 -8.501e-09 -2.30491e-08 -4.71005e-08 -8.02667e-08 -1.16703e-07 -1.4172e-07 -1.28757e-07 -3.79404e-08 1.82438e-07 5.90459e-07 1.24075e-06 2.1709e-06 3.38577e-06 4.84233e-06 6.438e-06 8.00553e-06 9.316e-06 1.00914e-05 1.00254e-05 8.81069e-06 6.16896e-06 1.88045e-06 -4.19139e-06 -1.20821e-05 -2.17185e-05 -3.29194e-05 -4.54065e-05 -5.88223e-05 -7.27524e-05 -8.67497e-05 -0.00010036 -0.000113144 -0.000124695 -0.000134654 -0.000142719 -0.000148652 -0.00015228 -0.000153501 -0.00015228 -0.000148652 -0.000142719 -0.000134654 -0.000124695 -0.000113144 -0.00010036 -8.67497e-05 -7.27524e-05 -5.88223e-05 -4.54065e-05 -3.29194e-05 -2.17185e-05 -1.20821e-05 -4.19139e-06 1.88045e-06 6.16896e-06 8.81069e-06 1.00254e-05 1.00914e-05 9.316e-06 8.00553e-06 6.438e-06 4.84233e-06 3.38577e-06 2.1709e-06 1.24075e-06 5.90459e-07 1.82438e-07 -3.79404e-08 -1.28757e-07 -1.4172e-07 -1.16703e-07 -8.02667e-08 -4.71005e-08 -2.30491e-08 -8.501e-09 -1.28129e-09 1.36298e-09 1.71055e-09 1.23e-09 6.6368e-10 2.71779e-10 7.07965e-11 -4.2831e-12 -1.88595e-11 -1.35504e-11 -6.29252e-12 -1.94773e-12 -2.20774e-13 1.81548e-13 1.5063e-13 6.46642e-14 1.63649e-14 3.77915e-16 -1.9599e-15 -1.09173e-15 -3.23439e-16 -3.31119e-17 2.07226e-17 1.34027e-17 3.91862e-18 3.50442e-19 -2.45308e-19 -1.37878e-19 -3.27092e-20 1.43224e-23 3.01969e-21 1.12601e-21 1.41616e-22 -4.70109e-23 -2.7712e-23 -5.19053e-24 5.47469e-25 5.65597e-25 1.24666e-25 -5.8102e-27 -1.02466e-26 -2.27206e-27 8.31585e-29 1.55143e-28 3.02387e-29 -1.7041e-30 -1.83391e-30 -2.73909e-31 2.85477e-32 1.57455e-32 1.49675e-33 -3.07298e-34 -9.10437e-35 -3.32512e-36 2.02293e-36 3.22122e-37 -1.05487e-38 -8.08682e-39 -1.62204e-39 -7.13768e-41 0 0 
0 0 -6.98653e-41 -1.60252e-39 -7.95955e-39 -9.65073e-39 3.46033e-37 2.1474e-36 -4.5537e-36 -1.07379e-34 -3.3658e-34 2.09947e-33 2.01375e-32 2.89644e-32 -4.15039e-31 -2.51695e-30 -1.0803e-30 4.97413e-29 2.26642e-28 -1.41879e-29 -4.0534e-27 -1.5859e-26 1.18468e-27 2.41186e-25 9.25111e-25 3.14997e-25 -1.10052e-23 -4.76073e-23 -5.22287e-23 3.70429e-22 2.12587e-21 4.41542e-21 -5.82085e-21 -7.30993e-20 -2.44056e-19 -2.59521e-19 1.41583e-18 8.65792e-18 2.3134e-17 1.62529e-17 -1.45491e-16 -7.67887e-16 -1.9996e-15 -2.00946e-15 7.72627e-15 4.78712e-14 1.40659e-13 2.36039e-13 2.47281e-15 -1.51606e-12 -6.01383e-12 -1.46162e-11 -2.28848e-11 -9.83786e-12 7.74607e-11 3.30904e-10 8.47447e-10 1.6013e-09 2.16879e-09 1.30497e-09 -3.49419e-09 -1.60952e-08 -4.09151e-08 -8.05005e-08 -1.30984e-07 -1.75517e-07 -1.76828e-07 -7.13011e-08 2.31956e-07 8.43283e-07 1.87296e-06 3.39922e-06 5.4263e-06 7.83819e-06 1.0357e-05 1.25156e-05 1.36542e-05 1.29453e-05 9.45016e-06 2.19981e-06 -9.70616e-06 -2.69982e-05 -5.01463e-05 -7.92913e-05 -0.000114211 -0.000154322 -0.000198719 -0.000246241 -0.000295567 -0.000345306 -0.000394102 -0.000440714 -0.000484082 -0.00052336 -0.000557927 -0.000587383 -0.000611511 -0.000630231 -0.000643546 -0.000651505 -0.000654151 -0.000651505 -0.000643546 -0.000630231 -0.000611511 -0.000587383 -0.000557927 -0.00052336 -0.000484082 -0.000440714 -0.000394102 -0.000345306 -0.000295567 -0.000246241 -0.000198719 -0.000154322 -0.000114211 -7.92913e-05 -5.01463e-05 -2.69982e-05 -9.70616e-06 2.19981e-06 9.45016e-06 1.29453e-05 1.36542e-05 1.25156e-05 1.0357e-05 7.83819e-06 5.4263e-06 3.39922e-06 1.87296e-06 8.43283e-07 2.31956e-07 -7.13011e-08 -1.76828e-07 -1.75517e-07 -1.30984e-07 -8.05005e-08 -4.09151e-08 -1.60952e-08 -3.49419e-09 1.30497e-09 2.16879e-09 1.6013e-09 8.47447e-10 3.30904e-10 7.74607e-11 -9.83786e-12 -2.28848e-11 -1.46162e-11 -6.01383e-12 -1.51606e-12 2.47281e-15 2.36039e-13 1.40659e-13 4.78712e-14 7.72629e-15 -2.00946e-15 -1.9996e-15 -7.67887e-16 -1.45491e-16 1.62529e-17 2.3134e-17 8.65792e-18 1.41583e-18 -2.5952e-19 -2.44056e-19 -7.30992e-20 -5.82086e-21 4.41542e-21 2.12587e-21 3.70427e-22 -5.21544e-23 -4.72691e-23 -1.09161e-23 3.12063e-25 9.17661e-25 2.39285e-25 1.16905e-27 -1.57414e-26 -4.02342e-27 -1.39421e-29 2.25058e-28 4.93914e-29 -1.07458e-30 -2.50008e-30 -4.1223e-31 2.87858e-32 2.00069e-32 2.08566e-33 -3.34488e-34 -1.06701e-34 -4.52392e-36 2.13421e-36 3.43739e-37 -1.0396e-38 -6.70962e-39 -1.25843e-39 0 0 
0 0 -1.17284e-39 -6.6009e-39 -1.06085e-38 3.46033e-37 2.20669e-36 -5.19642e-36 -1.19347e-34 -3.63422e-34 2.64439e-33 2.44504e-32 2.88253e-32 -5.74816e-31 -3.29432e-30 -4.41013e-32 7.53441e-29 3.16307e-28 -1.94338e-28 -6.67558e-27 -2.34441e-26 1.64557e-26 4.29587e-25 1.44457e-24 -4.03227e-25 -2.11915e-23 -7.83285e-23 -4.10503e-23 8.09365e-22 3.77401e-21 5.843e-21 -1.94942e-20 -1.46908e-19 -4.00488e-19 -1.06553e-19 3.76543e-18 1.71506e-17 3.55574e-17 -1.54278e-17 -4.04397e-16 -1.58765e-15 -3.15699e-15 2.99924e-16 2.75252e-14 1.13039e-13 2.59291e-13 2.39911e-13 -8.36923e-13 -4.97954e-12 -1.45376e-11 -2.71444e-11 -2.20018e-11 6.3506e-11 3.52723e-10 9.97291e-10 2.00305e-09 2.80377e-09 1.5433e-09 -5.73075e-09 -2.53105e-08 -6.43049e-08 -1.25786e-07 -1.9932e-07 -2.46997e-07 -1.87663e-07 1.14496e-07 8.47794e-07 2.22694e-06 4.43477e-06 7.52986e-06 1.13278e-05 1.52748e-05 1.83406e-05 1.89635e-05 1.50736e-05 4.21282e-06 -1.62493e-05 -4.88231e-05 -9.55668e-05 -0.000157762 -0.000235647 -0.000328258 -0.000433393 -0.000547731 -0.000667071 -0.000786685 -0.000901725 -0.00100764 -0.00110057 -0.00117767 -0.00123727 -0.00127903 -0.00130387 -0.00131383 -0.00131181 -0.00130131 -0.00128608 -0.00126975 -0.00125553 -0.00124593 -0.00124255 -0.00124593 -0.00125553 -0.00126975 -0.00128608 -0.00130131 -0.00131181 -0.00131383 -0.00130387 -0.00127903 -0.00123727 -0.00117767 -0.00110057 -0.00100764 -0.000901725 -0.000786685 -0.000667071 -0.000547731 -0.000433393 -0.000328258 -0.000235647 -0.000157762 -9.55668e-05 -4.88231e-05 -1.62493e-05 4.21282e-06 1.50736e-05 1.89635e-05 1.83406e-05 1.52748e-05 1.13278e-05 7.52986e-06 4.43477e-06 2.22694e-06 8.47794e-07 1.14496e-07 -1.87663e-07 -2.46997e-07 -1.9932e-07 -1.25786e-07 -6.43049e-08 -2.53105e-08 -5.73075e-09 1.5433e-09 2.80377e-09 2.00305e-09 9.97291e-10 3.52723e-10 6.3506e-11 -2.20018e-11 -2.71444e-11 -1.45376e-11 -4.97954e-12 -8.36923e-13 2.39911e-13 2.59291e-13 1.13039e-13 2.75252e-14 2.99924e-16 -3.15698e-15 -1.58765e-15 -4.04397e-16 -1.54277e-17 3.55575e-17 1.71506e-17 3.76543e-18 -1.06553e-19 -4.00488e-19 -1.46908e-19 -1.94942e-20 5.843e-21 3.77416e-21 8.0994e-22 -4.01661e-23 -7.76116e-23 -2.10128e-23 -3.99326e-25 1.43342e-24 4.26297e-25 1.63186e-26 -2.32753e-26 -6.62733e-27 -1.92731e-28 3.14143e-28 7.48238e-29 -4.616e-32 -3.27259e-30 -5.70984e-31 2.86528e-32 2.42937e-32 2.62721e-33 -3.61187e-34 -1.186e-34 -5.16308e-36 2.19255e-36 3.4878e-37 4.87388e-38 -2.63539e-39 0 0 
0 0 -2.45999e-39 4.45952e-38 3.2414e-37 2.1474e-36 -5.19642e-36 -1.23592e-34 -3.76886e-34 3.02907e-33 2.77832e-32 2.73776e-32 -7.30641e-31 -4.04385e-30 1.47907e-30 1.05168e-28 4.13895e-28 -4.85358e-28 -1.01516e-26 -3.24376e-26 4.47502e-26 7.06718e-25 2.1104e-24 -2.0287e-24 -3.7532e-23 -1.20699e-22 1.03597e-23 1.57112e-21 6.21002e-21 6.34227e-21 -4.70244e-20 -2.67759e-19 -5.90255e-19 4.5727e-19 8.27745e-18 3.04482e-17 4.53036e-17 -1.10266e-16 -9.13567e-16 -2.8711e-15 -3.90071e-15 8.82182e-15 7.06926e-14 2.25113e-13 3.83102e-13 -1.13222e-13 -3.23136e-12 -1.23472e-11 -2.8388e-11 -3.55715e-11 2.89819e-11 3.11843e-10 1.03114e-09 2.28439e-09 3.47837e-09 2.24062e-09 -6.96991e-09 -3.3533e-08 -8.84385e-08 -1.75986e-07 -2.76435e-07 -3.19231e-07 -1.52202e-07 4.79618e-07 1.92352e-06 4.55092e-06 8.60995e-06 1.39932e-05 1.99417e-05 2.47374e-05 2.54637e-05 1.79246e-05 -3.19532e-06 -4.38839e-05 -0.000110076 -0.000206717 -0.000336746 -0.000500146 -0.000693252 -0.000908424 -0.0011342 -0.00135593 -0.00155685 -0.00171944 -0.00182698 -0.0018651 -0.00182305 -0.0016948 -0.00147962 -0.00118232 -0.000812966 -0.000386319 7.914e-05 0.000562329 0.00104078 0.00149199 0.00189458 0.00222943 0.00248063 0.00263628 0.00268901 0.00263628 0.00248063 0.00222943 0.00189458 0.00149199 0.00104078 0.000562329 7.914e-05 -0.000386319 -0.000812966 -0.00118232 -0.00147962 -0.0016948 -0.00182305 -0.0018651 -0.00182698 -0.00171944 -0.00155685 -0.00135593 -0.0011342 -0.000908424 -0.000693252 -0.000500146 -0.000336746 -0.000206717 -0.000110076 -4.38839e-05 -3.19532e-06 1.79246e-05 2.54637e-05 2.47374e-05 1.99417e-05 1.39932e-05 8.60995e-06 4.55092e-06 1.92352e-06 4.79618e-07 -1.52202e-07 -3.19231e-07 -2.76435e-07 -1.75986e-07 -8.84385e-08 -3.3533e-08 -6.96991e-09 2.24062e-09 3.47837e-09 2.28439e-09 1.03114e-09 3.11843e-10 2.89819e-11 -3.55715e-11 -2.8388e-11 -1.23472e-11 -3.23136e-12 -1.13223e-13 3.83103e-13 2.25113e-13 7.06927e-14 8.82181e-15 -3.90071e-15 -2.87111e-15 -9.13567e-16 -1.10266e-16 4.53035e-17 3.04482e-17 8.27745e-18 4.57271e-19 -5.90255e-19 -2.67759e-19 -4.70243e-20 6.34306e-21 6.21019e-21 1.56323e-21 1.06948e-23 -1.19688e-22 -3.72305e-23 -2.0117e-24 2.09466e-24 7.01444e-25 4.43981e-26 -3.22102e-26 -1.00797e-26 -4.81645e-28 4.11118e-28 1.04453e-28 1.46615e-30 -4.01754e-30 -7.25831e-31 2.72189e-32 2.7607e-32 3.00961e-33 -3.74588e-34 -1.22826e-34 -5.15918e-36 2.19784e-36 5.65905e-37 4.83871e-38 0 0 
0 0 4.13891e-38 5.15917e-37 2.03554e-36 -4.5537e-36 -1.19347e-34 -3.76886e-34 3.16824e-33 2.96042e-32 2.5773e-32 -8.55841e-31 -4.67056e-30 3.21963e-30 1.35857e-28 5.09897e-28 -8.76562e-28 -1.43221e-26 -4.21687e-26 8.87708e-26 1.07999e-24 2.89169e-24 -4.9847e-24 -6.17091e-23 -1.74844e-22 1.31286e-22 2.78496e-21 9.54489e-21 4.52245e-21 -9.59361e-20 -4.49338e-19 -7.73606e-19 1.78354e-18 1.60144e-17 4.90003e-17 4.17256e-17 -3.21544e-16 -1.79397e-15 -4.58214e-15 -2.78165e-15 2.97352e-14 1.50694e-13 3.85507e-13 3.95099e-13 -1.35307e-12 -8.5234e-12 -2.52218e-11 -4.42712e-11 -1.44392e-11 2.1396e-10 9.16493e-10 2.33709e-09 4.04643e-09 3.49388e-09 -6.16332e-09 -3.7663e-08 -1.0728e-07 -2.22814e-07 -3.55619e-07 -3.94315e-07 -8.87033e-08 9.89648e-07 3.42347e-06 7.80298e-06 1.44032e-05 2.26683e-05 3.05514e-05 3.38402e-05 2.56757e-05 -3.48986e-06 -6.52786e-05 -0.000171986 -0.000334434 -0.000559282 -0.000846195 -0.00118533 -0.00155567 -0.00192456 -0.00224876 -0.0024769 -0.00255329 -0.00242241 -0.00203381 -0.00134682 -0.000334317 0.00101441 0.00269233 0.0046746 0.00691985 0.00937251 0.0119658 0.0146253 0.0172728 0.0198294 0.022219 0.024371 0.0262225 0.0277201 0.0288209 0.0294939 0.0297204 0.0294939 0.0288209 0.0277201 0.0262225 0.024371 0.022219 0.0198294 0.0172728 0.0146253 0.0119658 0.00937251 0.00691985 0.0046746 0.00269233 0.00101441 -0.000334317 -0.00134682 -0.00203381 -0.00242241 -0.00255329 -0.0024769 -0.00224876 -0.00192456 -0.00155567 -0.00118533 -0.000846195 -0.000559282 -0.000334434 -0.000171986 -6.52786e-05 -3.48986e-06 2.56757e-05 3.38402e-05 3.05514e-05 2.26683e-05 1.44032e-05 7.80298e-06 3.42347e-06 9.89648e-07 -8.87033e-08 -3.94315e-07 -3.55619e-07 -2.22814e-07 -1.0728e-07 -3.7663e-08 -6.16332e-09 3.49388e-09 4.04643e-09 2.33709e-09 9.16493e-10 2.1396e-10 -1.44392e-11 -4.42712e-11 -2.52218e-11 -8.52339e-12 -1.35307e-12 3.95099e-13 3.85507e-13 1.50694e-13 2.97351e-14 -2.78167e-15 -4.58215e-15 -1.79397e-15 -3.21545e-16 4.17256e-17 4.90004e-17 1.60145e-17 1.78354e-18 -7.73605e-19 -4.49337e-19 -9.59371e-20 4.50367e-21 9.47534e-21 2.76217e-21 1.30164e-22 -1.73483e-22 -6.12314e-23 -4.94475e-24 2.87081e-24 1.07212e-24 8.80968e-26 -4.18804e-26 -1.42225e-26 -8.70116e-28 5.06533e-28 1.34947e-28 3.19478e-30 -4.64054e-30 -8.50271e-31 2.56274e-32 2.94182e-32 3.14807e-33 -3.746e-34 -1.1856e-34 -4.4229e-36 6.34897e-37 3.59591e-37 0 0 
0 0 3.06641e-37 6.67924e-37 -3.3475e-36 -1.07379e-34 -3.63422e-34 3.02907e-33 2.96042e-32 2.50915e-32 -9.25805e-31 -5.08719e-30 4.75753e-30 1.62844e-28 5.93646e-28 -1.3204e-27 -1.88015e-26 -5.17225e-26 1.47946e-25 1.53851e-24 3.727e-24 -9.59539e-24 -9.46497e-23 -2.3837e-22 3.55776e-22 4.57767e-21 1.37862e-20 -1.51456e-21 -1.74594e-19 -7.01151e-19 -8.76382e-19 4.3307e-18 2.80596e-17 7.18441e-17 7.00159e-18 -7.18803e-16 -3.15384e-15 -6.42261e-15 2.75932e-15 7.15292e-14 2.79739e-13 5.65207e-13 4.82652e-14 -4.31866e-12 -1.8277e-11 -4.34942e-11 -4.93534e-11 9.04758e-11 6.71264e-10 2.09041e-09 4.26849e-09 5.00433e-09 -3.00314e-09 -3.52682e-08 -1.1435e-07 -2.55535e-07 -4.27596e-07 -4.80945e-07 -5.28921e-08 1.50647e-06 5.10041e-06 1.16209e-05 2.1333e-05 3.28542e-05 4.18213e-05 3.95331e-05 1.20572e-05 -5.95962e-05 -0.000197671 -0.000423908 -0.000753912 -0.00119023 -0.0017152 -0.0022849 -0.00282551 -0.00323336 -0.00337886 -0.00311474 -0.00228727 -0.000749492 0.00162522 0.00493096 0.00921994 0.0144965 0.0207159 0.0277861 0.0355744 0.0439152 0.0526193 0.0614864 0.0703125 0.0789002 0.0870648 0.0946397 0.10148 0.107461 0.112483 0.116467 0.119353 0.1211 0.121685 0.1211 0.119353 0.116467 0.112483 0.107461 0.10148 0.0946397 0.0870648 0.0789002 0.0703125 0.0614864 0.0526193 0.0439152 0.0355744 0.0277861 0.0207159 0.0144965 0.00921994 0.00493096 0.00162522 -0.000749492 -0.00228727 -0.00311474 -0.00337886 -0.00323336 -0.00282551 -0.0022849 -0.0017152 -0.00119023 -0.000753912 -0.000423908 -0.000197671 -5.95962e-05 1.20572e-05 3.95331e-05 4.18213e-05 3.28542e-05 2.1333e-05 1.16209e-05 5.10041e-06 1.50647e-06 -5.28921e-08 -4.80945e-07 -4.27596e-07 -2.55535e-07 -1.1435e-07 -3.52682e-08 -3.00314e-09 5.00433e-09 4.26849e-09 2.09041e-09 6.71264e-10 9.04758e-11 -4.93534e-11 -4.34942e-11 -1.8277e-11 -4.31866e-12 4.82641e-14 5.65206e-13 2.79739e-13 7.15292e-14 2.75932e-15 -6.42261e-15 -3.15384e-15 -7.18803e-16 7.00179e-18 7.18441e-17 2.80596e-17 4.33071e-18 -8.76383e-19 -7.01181e-19 -1.74693e-19 -1.61447e-21 1.36625e-20 4.53984e-21 3.5274e-22 -2.36591e-22 -9.3937e-23 -9.52081e-24 3.70091e-24 1.52753e-24 1.46852e-25 -5.13763e-26 -1.86729e-26 -1.31093e-27 5.89786e-28 1.61767e-28 4.72248e-30 -5.05483e-30 -9.19841e-31 2.49513e-32 2.94196e-32 3.01001e-33 -3.61146e-34 -1.08827e-34 -2.00567e-35 -2.6132e-37 0 0 
0 0 -1.34261e-37 -1.64887e-35 -9.16288e-35 -3.3658e-34 2.64439e-33 2.77832e-32 2.5773e-32 -9.25805e-31 -5.23326e-30 5.6626e-30 1.81426e-28 6.55459e-28 -1.73743e-27 -2.30167e-26 -6.01483e-26 2.17021e-25 2.04842e-24 4.53679e-24 -1.59064e-23 -1.35882e-22 -3.06442e-22 7.13734e-22 7.0381e-21 1.88147e-20 -1.39284e-20 -2.90787e-19 -1.02507e-18 -7.9182e-19 8.61036e-18 4.52689e-17 9.60311e-17 -8.36e-17 -1.37892e-15 -5.04499e-15 -7.71623e-15 1.64493e-14 1.43869e-13 4.62196e-13 6.8407e-13 -1.0659e-12 -1.0094e-11 -3.36357e-11 -6.28367e-11 -1.51556e-11 3.69075e-10 1.5754e-09 3.94152e-09 6.121e-09 1.60395e-09 -2.61658e-08 -1.05506e-07 -2.63352e-07 -4.78309e-07 -5.81904e-07 -1.12254e-07 1.82125e-06 6.52004e-06 1.52994e-05 2.84617e-05 4.34908e-05 5.25971e-05 4.01685e-05 -1.88388e-05 -0.000158213 -0.000416167 -0.000826541 -0.00140569 -0.00213638 -0.00295141 -0.00372024 -0.00424203 -0.00424813 -0.00341487 -0.00138662 0.00219389 0.00765102 0.0152428 0.0251328 0.0373697 0.0518796 0.0684683 0.086835 0.106594 0.127304 0.148495 0.169699 0.190471 0.210416 0.229196 0.246543 0.262254 0.276192 0.288272 0.298459 0.306745 0.31315 0.317698 0.320414 0.321316 0.320414 0.317698 0.31315 0.306745 0.298459 0.288272 0.276192 0.262254 0.246543 0.229196 0.210416 0.190471 0.169699 0.148495 0.127304 0.106594 0.086835 0.0684683 0.0518796 0.0373697 0.0251328 0.0152428 0.00765102 0.00219389 -0.00138662 -0.00341487 -0.00424813 -0.00424203 -0.00372024 -0.00295141 -0.00213638 -0.00140569 -0.000826541 -0.000416167 -0.000158213 -1.88388e-05 4.01685e-05 5.25971e-05 4.34908e-05 2.84617e-05 1.52994e-05 6.52004e-06 1.82125e-06 -1.12254e-07 -5.81904e-07 -4.78309e-07 -2.63352e-07 -1.05506e-07 -2.61658e-08 1.60395e-09 6.121e-09 3.94152e-09 1.5754e-09 3.69075e-10 -1.51556e-11 -6.28367e-11 -3.36357e-11 -1.0094e-11 -1.0659e-12 6.8407e-13 4.62195e-13 1.43869e-13 1.64493e-14 -7.71624e-15 -5.04499e-15 -1.37892e-15 -8.36e-17 9.60311e-17 4.52689e-17 8.61031e-18 -7.91942e-19 -1.02501e-18 -2.89265e-19 -1.38701e-20 1.86629e-20 6.98273e-21 7.07944e-22 -3.04233e-22 -1.34882e-22 -1.57858e-23 4.50592e-24 2.03408e-24 2.15449e-25 -5.97534e-26 -2.28615e-26 -1.72521e-27 6.51252e-28 1.80239e-28 5.62194e-30 -5.20027e-30 -9.19897e-31 2.56282e-32 2.76114e-32 2.62626e-33 -3.4866e-34 -1.19932e-34 -1.51173e-35 0 0 
0 0 -1.16633e-35 -1.01175e-34 -3.09244e-34 2.09947e-33 2.44504e-32 2.73776e-32 -8.55841e-31 -5.08719e-30 5.6626e-30 1.88059e-28 6.88221e-28 -2.03674e-27 -2.63171e-26 -6.66597e-26 2.86054e-25 2.55412e-24 5.2438e-24 -2.35228e-23 -1.83038e-22 -3.72696e-22 1.21687e-21 1.01633e-20 2.43475e-20 -3.4702e-20 -4.49886e-19 -1.4132e-18 -3.94913e-19 1.50922e-17 6.79999e-17 1.16506e-16 -2.58938e-16 -2.37057e-15 -7.41764e-15 -7.36662e-15 4.28492e-14 2.55337e-13 6.86731e-13 5.96248e-13 -3.50359e-12 -1.97769e-11 -5.42947e-11 -7.18995e-11 1.06345e-10 9.40171e-10 3.0711e-09 6.22004e-09 5.83834e-09 -1.30743e-08 -8.1647e-08 -2.39744e-07 -4.8983e-07 -6.79305e-07 -2.9827e-07 1.74765e-06 7.19327e-06 1.79338e-05 3.45399e-05 5.34051e-05 6.26137e-05 3.74456e-05 -6.25516e-05 -0.000292141 -0.000711674 -0.00136902 -0.00227213 -0.0033552 -0.00444411 -0.00522907 -0.00525284 -0.00392068 -0.000535264 0.00564529 0.015333 0.0291291 0.0474477 0.0704568 0.0980438 0.12981 0.165095 0.203028 0.242592 0.282704 0.322298 0.360385 0.396118 0.428834 0.458062 0.483545 0.505215 0.523179 0.537677 0.549057 0.557723 0.56411 0.568646 0.571725 0.57367 0.574734 0.575071 0.574734 0.57367 0.571725 0.568646 0.56411 0.557723 0.549057 0.537677 0.523179 0.505215 0.483545 0.458062 0.428834 0.396118 0.360385 0.322298 0.282704 0.242592 0.203028 0.165095 0.12981 0.0980438 0.0704568 0.0474477 0.0291291 0.015333 0.00564529 -0.000535264 -0.00392068 -0.00525284 -0.00522907 -0.00444411 -0.0033552 -0.00227213 -0.00136902 -0.000711674 -0.000292141 -6.25516e-05 3.74456e-05 6.26137e-05 5.34051e-05 3.45399e-05 1.79338e-05 7.19327e-06 1.74765e-06 -2.9827e-07 -6.79305e-07 -4.8983e-07 -2.39744e-07 -8.1647e-08 -1.30743e-08 5.83834e-09 6.22004e-09 3.0711e-09 9.40172e-10 1.06345e-10 -7.18995e-11 -5.42947e-11 -1.97769e-11 -3.50359e-12 5.96249e-13 6.86732e-13 2.55337e-13 4.28492e-14 -7.36662e-15 -7.41765e-15 -2.37057e-15 -2.58938e-16 1.16506e-16 6.79998e-17 1.50925e-17 -3.9194e-19 -1.40308e-18 -4.46254e-19 -3.44025e-20 2.4165e-20 1.0086e-20 1.20731e-21 -3.70096e-22 -1.8172e-22 -2.33483e-23 5.209e-24 2.53652e-24 2.8402e-25 -6.62292e-26 -2.61419e-26 -2.02262e-27 6.83851e-28 1.86841e-28 5.62246e-30 -5.05539e-30 -8.50425e-31 2.72202e-32 2.42896e-32 2.09289e-33 1.34953e-34 -6.22501e-35 0 0 
0 0 -4.98387e-35 6.84602e-35 1.50683e-33 2.01375e-32 2.88253e-32 -7.30641e-31 -4.67056e-30 4.75753e-30 1.81426e-28 6.88221e-28 -2.14575e-27 -2.81336e-26 -7.07384e-26 3.42373e-25 2.98687e-24 5.7926e-24 -3.15547e-23 -2.31785e-22 -4.3087e-22 1.84529e-21 1.38189e-20 2.99376e-20 -6.50284e-20 -6.53083e-19 -1.84825e-18 4.30424e-19 2.40845e-17 9.59124e-17 1.26705e-16 -5.46598e-16 -3.73529e-15 -1.0093e-14 -3.94775e-15 8.65694e-14 4.10486e-13 9.2026e-13 9.24974e-14 -7.88883e-12 -3.40912e-11 -7.73615e-11 -5.05072e-11 3.80495e-10 1.92339e-09 5.15624e-09 7.99738e-09 -5.55049e-10 -4.95016e-08 -1.87442e-07 -4.48292e-07 -7.334e-07 -5.67931e-07 1.23539e-06 6.78541e-06 1.86881e-05 3.8218e-05 6.13271e-05 7.23273e-05 3.64552e-05 -0.000105505 -0.000435427 -0.00104291 -0.00199248 -0.00327196 -0.0047272 -0.00599485 -0.0064499 -0.00518616 -0.00104437 0.00730543 0.021232 0.0419768 0.0704781 0.107215 0.152092 0.204394 0.262803 0.325492 0.390271 0.454762 0.5166 0.573608 0.623941 0.666214 0.699543 0.723564 0.738429 0.744721 0.743376 0.735597 0.722781 0.706389 0.687899 0.668718 0.650138 0.633311 0.619205 0.608574 0.601975 0.599737 0.601975 0.608574 0.619205 0.633311 0.650138 0.668718 0.687899 0.706389 0.722781 0.735597 0.743376 0.744721 0.738429 0.723564 0.699543 0.666214 0.623941 0.573608 0.5166 0.454762 0.390271 0.325492 0.262803 0.204394 0.152092 0.107215 0.0704781 0.0419768 0.021232 0.00730543 -0.00104437 -0.00518616 -0.0064499 -0.00599485 -0.0047272 -0.00327196 -0.00199248 -0.00104291 -0.000435427 -0.000105505 3.64552e-05 7.23273e-05 6.13271e-05 3.8218e-05 1.86881e-05 6.78541e-06 1.23539e-06 -5.67931e-07 -7.334e-07 -4.48292e-07 -1.87442e-07 -4.95016e-08 -5.55058e-10 7.99738e-09 5.15624e-09 1.92339e-09 3.80495e-10 -5.05073e-11 -7.73616e-11 -3.40912e-11 -7.88883e-12 9.24976e-14 9.20261e-13 4.10487e-13 8.65694e-14 -3.94779e-15 -1.0093e-14 -3.73528e-15 -5.46596e-16 1.26706e-16 9.59164e-17 2.40972e-17 4.41336e-19 -1.83225e-18 -6.478e-19 -6.44791e-20 2.97219e-20 1.37164e-20 1.83114e-21 -4.27955e-22 -2.30147e-22 -3.13251e-23 5.75502e-24 2.96659e-24 3.39975e-25 -7.02878e-26 -2.79483e-26 -2.13106e-27 6.83889e-28 1.80261e-28 4.72381e-30 -4.64158e-30 -7.26061e-31 2.8661e-32 2.05019e-32 4.48583e-33 2.07151e-34 0 0 
0 0 1.2998e-34 3.35405e-33 1.58497e-32 2.89644e-32 -5.74816e-31 -4.04385e-30 3.21963e-30 1.62844e-28 6.55459e-28 -2.03674e-27 -2.81336e-26 -7.21226e-26 3.74123e-25 3.27955e-24 6.15788e-24 -3.87401e-23 -2.76329e-22 -4.76511e-22 2.54007e-21 1.7725e-20 3.50941e-20 -1.04421e-19 -8.94788e-19 -2.30659e-18 1.7565e-18 3.56187e-17 1.27922e-16 1.19909e-16 -9.65816e-16 -5.47093e-15 -1.27718e-14 4.05101e-15 1.51159e-13 6.07175e-13 1.10728e-12 -1.07312e-12 -1.47702e-11 -5.29444e-11 -9.66065e-11 2.96123e-11 8.78821e-10 3.39021e-09 7.54141e-09 7.40929e-09 -1.90201e-08 -1.20005e-07 -3.55636e-07 -7.03652e-07 -8.11138e-07 4.31179e-07 5.31104e-06 1.71282e-05 3.83513e-05 6.5753e-05 8.17368e-05 4.29706e-05 -0.000129233 -0.00054846 -0.00134169 -0.00259669 -0.00427441 -0.00609349 -0.00740796 -0.00711079 -0.00360064 0.00515655 0.0214561 0.0475822 0.0854691 0.13635 0.200453 0.27681 0.363206 0.456287 0.551822 0.645056 0.731147 0.805568 0.864487 0.905037 0.925487 0.925281 0.904998 0.866184 0.811181 0.742896 0.664563 0.579545 0.491135 0.402451 0.3163 0.235152 0.161097 0.095857 0.0407966 -0.00302415 -0.0348417 -0.054132 -0.0605963 -0.054132 -0.0348417 -0.00302415 0.0407966 0.095857 0.161097 0.235152 0.3163 0.402451 0.491135 0.579545 0.664563 0.742896 0.811181 0.866184 0.904998 0.925281 0.925487 0.905037 0.864487 0.805568 0.731147 0.645056 0.551822 0.456287 0.363206 0.27681 0.200453 0.13635 0.0854691 0.0475822 0.0214561 0.00515655 -0.00360064 -0.00711079 -0.00740796 -0.00609349 -0.00427441 -0.00259669 -0.00134169 -0.00054846 -0.000129233 4.29706e-05 8.17368e-05 6.5753e-05 3.83513e-05 1.71282e-05 5.31104e-06 4.31179e-07 -8.11138e-07 -7.03652e-07 -3.55636e-07 -1.20005e-07 -1.90201e-08 7.40929e-09 7.54141e-09 3.39021e-09 8.78821e-10 2.96123e-11 -9.66064e-11 -5.29444e-11 -1.47702e-11 -1.07313e-12 1.10728e-12 6.07175e-13 1.51159e-13 4.05097e-15 -1.27718e-14 -5.47093e-15 -9.6581e-16 1.19924e-16 1.27913e-16 3.54362e-17 1.7478e-18 -2.28864e-18 -8.8787e-19 -1.03577e-19 3.48494e-20 1.75963e-20 2.52099e-21 -4.7338e-22 -2.7441e-22 -3.84626e-23 6.11866e-24 3.25757e-24 3.71536e-25 -7.1668e-26 -2.79502e-26 -2.02293e-27 6.51366e-28 1.61807e-28 3.19642e-30 -4.0189e-30 -5.709e-31 3.08439e-32 1.63599e-32 2.83565e-33 0 0 