<?xml version="1.0"?>
<VTKFile type="ImageData" version="0.1" byte_order="LittleEndian">
<ImageData WholeExtent="0 199 0 199 0 0" Origin="0 0 0" Spacing="15 15 0">
<Piece Extent="0 199 0 199 0 0">
<PointData Scalars="Amplitude">
<DataArray type="Float32" Name="Amplitude" format="ascii">
0 0 0 0 0 0 0 0 0 0 0 0 0 0 0 0 0 0 0 0 0 0 0 0 0 0 0 0 0 0 0 0 0 0 0 0 0 0 0 0 0 0 0 0 0 0 0 0 0 0 0 0 0 0 0 0 0 0 0 0 0 0 0 0 0 0 0 0 0 0 0 0 0 0 0 0 0 0 0 0 0 0 0 0 0 0 0 0 0 0 0 0 0 0 0 0 0 0 0 0 0 0 0 0 0 0 0 0 0 0 0 0 0 0 0 0 0 0 0 0 0 0 0 0 0 0 0 0 0 0 0 0 0 0 0 0 0 0 0 0 0 0 0 0 0 0 0 0 0 0 0 0 0 0 0 0 0 0 0 0 0 0 0 0 0 0 0 0 0 0 0 0 0 0 0 0 0 0 0 0 0 0 0 0 0 0 0 0 0 0 0 0 0 0 0 0 0 0 0 0 
0 0 0 0 0 0 0 0 0 0 0 0 0 0 0 0 0 0 0 0 0 0 0 0 0 0 0 0 0 0 0 0 0 0 0 0 0 0 0 0 0 0 0 0 0 0 0 0 0 0 0 0 0 0 0 0 0 0 0 0 0 0 0 0 0 0 0 0 0 0 0 0 0 0 0 0 0 0 0 0 0 0 0 0 0 0 0 0 0 0 0 0 0 0 0 0 0 0 0 0 0 0 0 0 0 0 0 0 0 0 0 0 0 0 0 0 0 0 0 0 0 0 0 0 0 0 0 0 0 0 0 0 0 0 0 0 0 0 0 0 0 0 0 0 0 0 0 0 0 0 0 0 0 0 0 0 0 0 0 0 0 0 0 0 0 0 0 0 0 0 0 0 0 0 0 0 0 0 0 0 0 0 0 0 0 0 0 0 0 0 0 0 0 0 0 0 0 0 0 0 
0 0 3.44954e-21 -8.81716e-21 -1.09408e-19 -1.32401e-18 -4.95212e-18 1.03041e-17 2.07387e-16 9.95596e-16 1.00953e-15 -1.53622e-14 -1.04701e-13 -2.96858e-13 9.49024e-14 4.68459e-12 2.16081e-11 4.73067e-11 -1.32194e-11 -5.17828e-10 -2.11702e-09 -4.66004e-09 -3.11451e-09 2.01647e-08 9.96195e-08 2.6167e-07 4.2287e-07 1.61862e-07 -1.59613e-06 -6.67947e-06 -1.68267e-05 -3.07921e-05 -3.84691e-05 -1.24527e-05 9.97987e-05 0.000376771 0.000908633 0.00176268 0.00293181 0.00428187 0.00552412 0.00623987 0.00597059 0.00436098 0.0013134 -0.00290391 -0.0076479 -0.0120132 -0.0150457 -0.0159953 -0.0145309 -0.0108453 -0.00561752 0.00015463 0.00540019 0.00922481 0.0110982 0.0109351 0.00906184 0.00609341 0.00276296 -0.000246617 -0.00243167 -0.00353506 -0.00354968 -0.00267091 -0.00121958 0.000442407 0.00198494 0.00315998 0.0038254 0.00394477 0.00356965 0.00281202 0.00181431 0.00072264 -0.000333685 -0.00125456 -0.00197441 -0.00246144 -0.0027128 -0.00274767 -0.00259962 -0.00230967 -0.00192042 -0.00147181 -0.000998355 -0.000527844 -8.09675e-05 0.000328318 0.000691828 0.0010061 0.0012712 0.00148971 0.00166566 0.00180381 0.00190897 0.00198562 0.00203748 0.00206743 0.00207721 0.00206743 0.00203748 0.00198562 0.00190897 0.00180381 0.00166566 0.00148971 0.0012712 0.0010061 0.000691828 0.000328318 -8.09675e-05 -0.000527844 -0.000998355 -0.00147181 -0.00192042 -0.00230967 -0.00259962 -0.00274767 -0.0027128 -0.00246144 -0.00197441 -0.00125456 -0.000333685 0.00072264 0.00181431 0.00281202 0.00356965 0.00394477 0.0038254 0.00315998 0.00198494 0.000442407 -0.00121958 -0.00267091 -0.00354967 -0.00353504 -0.00243165 -0.0002466 0.00276299 0.00609345 0.00906187 0.0109351 0.0110983 0.00922482 0.00540019 0.000154603 -0.00561759 -0.0108454 -0.014531 -0.0159953 -0.0150456 -0.0120132 -0.00764785 -0.00290387 0.00131342 0.00436099 0.0059706 0.00623988 0.00552413 0.00428188 0.00293181 0.00176268 0.000908634 0.000376771 9.97994e-05 -1.24525e-05 -3.84691e-05 -3.07923e-05 -1.68275e-05 -6.68182e-06 -1.60072e-06 1.565e-07 4.17231e-07 2.58752e-07 9.8595e-08 1.99671e-08 -3.0848e-09 -4.61682e-09 -2.09774e-09 -5.13131e-10 -1.30555e-11 4.69154e-11 2.14273e-11 4.64494e-12 9.37171e-14 -2.94551e-13 -1.0387e-13 -1.5237e-14 1.00301e-15 9.88073e-16 2.05785e-16 1.02171e-17 -4.91862e-18 -1.35159e-18 -2.88569e-19 -1.89923e-20 0 0 
0 0 -8.81716e-21 -2.92305e-19 -1.52461e-18 -7.69503e-18 6.52865e-19 2.42904e-16 1.48904e-15 2.82048e-15 -1.75908e-14 -1.58166e-13 -5.41463e-13 -2.17099e-13 7.12829e-12 3.85375e-11 9.69909e-11 1.63026e-11 -9.28172e-10 -4.23959e-09 -1.01219e-08 -8.49948e-09 3.96711e-08 2.15579e-07 5.89291e-07 9.79827e-07 4.10296e-07 -3.65392e-06 -1.55527e-05 -3.93347e-05 -7.1543e-05 -8.65949e-05 -1.6026e-05 0.000270006 0.000962298 0.00227313 0.00434618 0.00712787 0.0102444 0.0129534 0.0142341 0.0130394 0.00865935 0.00107775 -0.00882637 -0.0193483 -0.0283209 -0.0336795 -0.0340506 -0.0291658 -0.0199605 -0.00832557 0.00340095 0.0130343 0.0190558 0.0208984 0.0189566 0.0143544 0.00857148 0.00304923 -0.00112118 -0.00336767 -0.00365239 -0.00236399 -0.000140416 0.00232052 0.0044185 0.00574893 0.00613757 0.00562105 0.00439171 0.0027279 0.000926868 -0.000748311 -0.00210175 -0.00301813 -0.00346005 -0.00345433 -0.00307282 -0.0024124 -0.00157717 -0.00066497 0.000241699 0.00107997 0.0018077 0.00240185 0.00285527 0.00317303 0.00336855 0.00346036 0.00346921 0.003416 0.00332028 0.00319956 0.00306868 0.00293984 0.00282267 0.0027246 0.00265102 0.00260555 0.00259016 0.00260555 0.00265102 0.0027246 0.00282267 0.00293984 0.00306868 0.00319956 0.00332028 0.003416 0.00346921 0.00346036 0.00336855 0.00317303 0.00285527 0.00240185 0.0018077 0.00107997 0.000241699 -0.00066497 -0.00157717 -0.0024124 -0.00307282 -0.00345433 -0.00346005 -0.00301813 -0.00210175 -0.000748311 0.000926868 0.0027279 0.00439171 0.00562105 0.00613757 0.00574893 0.0044185 0.00232052 -0.000140409 -0.00236397 -0.00365238 -0.00336765 -0.00112115 0.00304926 0.00857147 0.0143544 0.0189567 0.0208984 0.0190558 0.0130343 0.00340087 -0.00832568 -0.0199606 -0.0291658 -0.0340504 -0.0336793 -0.0283207 -0.0193482 -0.00882631 0.0010778 0.0086594 0.0130395 0.0142341 0.0129534 0.0102444 0.00712787 0.00434619 0.00227314 0.000962302 0.000270008 -1.60257e-05 -8.65963e-05 -7.15481e-05 -3.9344e-05 -1.556e-05 -3.63591e-06 4.0138e-07 9.68843e-07 5.83211e-07 2.13448e-07 3.92867e-08 -8.42413e-09 -1.00313e-08 -4.20192e-09 -9.19889e-10 1.62645e-11 9.62006e-11 3.82195e-11 7.06843e-12 -2.16038e-13 -5.37273e-13 -1.56918e-13 -1.74466e-14 2.80052e-15 1.47779e-15 2.41025e-16 5.92584e-19 -7.91061e-18 -2.22775e-18 -3.01291e-19 0 0 
0 0 -1.09408e-19 -1.52461e-18 -6.83035e-18 -2.19663e-17 7.98133e-17 1.15996e-15 4.89618e-15 4.70855e-16 -1.06137e-13 -6.02148e-13 -1.33545e-12 2.85706e-12 3.42724e-11 1.30211e-10 2.03695e-10 -4.97263e-10 -4.2753e-09 -1.40293e-08 -2.33726e-08 1.22527e-08 2.16411e-07 7.71106e-07 1.64164e-06 1.77286e-06 -2.31316e-06 -1.77249e-05 -5.3529e-05 -0.000111248 -0.000162105 -0.000110207 0.000247084 0.00123337 0.00324202 0.00658829 0.0112731 0.0167311 0.021694 0.02431 0.0225878 0.0150957 0.00168766 -0.0160491 -0.0348859 -0.0506568 -0.0593998 -0.0585646 -0.0478562 -0.0294049 -0.00719696 0.0140358 0.0300958 0.0383562 0.0382707 0.0312621 0.0201035 0.00803973 -0.00206843 -0.0083527 -0.0101857 -0.00808116 -0.00334256 0.00239596 0.00760211 0.011156 0.0124987 0.011626 0.00896821 0.00521255 0.00111886 -0.00263148 -0.00553496 -0.00730802 -0.00788127 -0.00736019 -0.00596915 -0.00399252 -0.00172336 0.000575098 0.00269318 0.00448473 0.00586663 0.00681081 0.00733246 0.00747693 0.00730728 0.00689413 0.00630785 0.00561303 0.00486549 0.00411081 0.00338428 0.00271181 0.00211123 0.00159404 0.00116695 0.000833597 0.000595483 0.000452819 0.000405333 0.000452819 0.000595483 0.000833597 0.00116695 0.00159404 0.00211123 0.00271181 0.00338428 0.00411081 0.00486549 0.00561303 0.00630785 0.00689413 0.00730728 0.00747693 0.00733246 0.00681081 0.00586663 0.00448473 0.00269318 0.000575098 -0.00172336 -0.00399252 -0.00596915 -0.00736019 -0.00788127 -0.00730802 -0.00553496 -0.00263148 0.00111886 0.00521255 0.00896821 0.011626 0.0124987 0.011156 0.00760212 0.00239596 -0.00334257 -0.00808113 -0.0101857 -0.00835274 -0.00206846 0.00803975 0.0201034 0.0312621 0.0382706 0.0383562 0.0300957 0.0140358 -0.00719704 -0.0294047 -0.0478559 -0.0585641 -0.0593994 -0.0506565 -0.0348858 -0.016049 0.00168776 0.0150957 0.0225879 0.02431 0.021694 0.0167311 0.0112731 0.0065883 0.00324203 0.00123337 0.000247085 -0.000110212 -0.00016212 -0.000111266 -5.35196e-05 -1.7611e-05 -2.29997e-06 1.75178e-06 1.62451e-06 7.6345e-07 2.14323e-07 1.21269e-08 -2.31651e-08 -1.39053e-08 -4.23763e-09 -4.92699e-10 2.02082e-10 1.29146e-10 3.39892e-11 2.83176e-12 -1.32536e-12 -5.97443e-13 -1.0529e-13 4.7424e-16 4.85965e-15 1.15109e-15 7.89641e-17 -2.27206e-17 -7.91691e-18 -1.41184e-18 0 0 
0 0 -1.32401e-18 -7.69503e-18 -2.19663e-17 8.5477e-17 1.23313e-15 5.14588e-15 -1.73946e-15 -1.34463e-13 -7.32296e-13 -1.42479e-12 5.32505e-12 5.06274e-11 1.78723e-10 2.11107e-10 -1.12265e-09 -7.44045e-09 -2.21639e-08 -2.93113e-08 5.85234e-08 4.61856e-07 1.44525e-06 2.69163e-06 1.67625e-06 -8.7958e-06 -4.17275e-05 -0.000109925 -0.000203017 -0.000238868 6.81956e-06 0.000962281 0.00325041 0.00753314 0.014171 0.0227576 0.0317211 0.0382674 0.0388978 0.0305155 0.0118172 -0.0155862 -0.0469167 -0.0751606 -0.0930206 -0.0952456 -0.0804628 -0.0517858 -0.0159448 0.0187482 0.044856 0.0578335 0.0569874 0.0451765 0.0275178 0.00963975 -0.00391199 -0.0106768 -0.0105042 -0.00510858 0.00278474 0.010368 0.015491 0.0170592 0.0150747 0.0103981 0.00436315 -0.00162493 -0.00640969 -0.00927033 -0.00997108 -0.00870098 -0.00594721 -0.00234358 0.00146631 0.00493236 0.00765841 0.00942227 0.0101632 0.00995037 0.00894131 0.00734116 0.00536681 0.00322037 0.00107208 -0.000947969 -0.00275138 -0.00428769 -0.00553831 -0.00650965 -0.00722539 -0.00771936 -0.00803074 -0.00820011 -0.00826609 -0.00826316 -0.00822088 -0.00816333 -0.00810904 -0.0080713 -0.00805787 -0.0080713 -0.00810904 -0.00816333 -0.00822088 -0.00826316 -0.00826609 -0.00820011 -0.00803074 -0.00771936 -0.00722539 -0.00650965 -0.00553831 -0.00428769 -0.00275138 -0.000947969 0.00107208 0.00322037 0.00536681 0.00734116 0.00894131 0.00995037 0.0101632 0.00942227 0.00765841 0.00493236 0.00146631 -0.00234358 -0.00594721 -0.00870098 -0.00997108 -0.00927033 -0.00640969 -0.00162495 0.00436314 0.0103981 0.0150747 0.0170592 0.015491 0.010368 0.00278477 -0.00510857 -0.0105042 -0.0106769 -0.0039122 0.00963939 0.0275177 0.0451767 0.0569877 0.057834 0.0448563 0.0187486 -0.0159444 -0.0517852 -0.0804623 -0.0952453 -0.0930205 -0.0751603 -0.0469165 -0.0155861 0.0118172 0.0305155 0.0388979 0.0382673 0.031721 0.0227575 0.014171 0.00753315 0.00325042 0.000962266 6.80395e-06 -0.000238805 -0.000202673 -0.000109003 -4.13052e-05 -8.71094e-06 1.6575e-06 2.66499e-06 1.43146e-06 4.5754e-07 5.79666e-08 -2.90633e-08 -2.19737e-08 -7.3766e-09 -1.11278e-09 2.09521e-10 1.77291e-10 5.02168e-11 5.27988e-12 -1.41429e-12 -7.26647e-13 -1.33405e-13 -1.7185e-15 5.10766e-15 1.22294e-15 8.56081e-17 1.47168e-18 -5.27138e-18 0 0 
0 0 -4.95212e-18 6.52865e-19 7.98133e-17 1.23313e-15 5.29389e-15 -2.96193e-15 -1.56716e-13 -8.50591e-13 -1.50452e-12 8.07089e-12 6.94895e-11 2.34602e-10 1.95826e-10 -2.05513e-09 -1.19931e-08 -3.32856e-08 -3.28838e-08 1.49601e-07 8.92992e-07 2.55808e-06 4.17286e-06 2.59179e-07 -2.33919e-05 -8.97195e-05 -0.000213919 -0.000352063 -0.00030116 0.000431693 0.00271741 0.00771831 0.0164904 0.0292463 0.044479 0.0583989 0.0652377 0.0587512 0.0346961 -0.00659705 -0.0588049 -0.110365 -0.147568 -0.159066 -0.140035 -0.0942785 -0.0332757 0.0274996 0.0735594 0.0957911 0.0927231 0.0700629 0.0379906 0.00742713 -0.0133261 -0.0205397 -0.0152525 -0.001987 0.0133023 0.0252595 0.0305346 0.028307 0.0199861 0.00837298 -0.00334984 -0.0124925 -0.0174052 -0.0176449 -0.0138243 -0.00726061 0.000439938 0.00775307 0.0134993 0.0169744 0.017959 0.0166421 0.0134952 0.009137 0.00421196 -0.000701673 -0.00514813 -0.00881712 -0.0115426 -0.0132825 -0.0140911 -0.0140868 -0.0134232 -0.0122663 -0.0107763 -0.00909704 -0.00734915 -0.00562746 -0.00400243 -0.00252368 -0.00122233 -0.000115765 0.000788577 0.00148844 0.00198502 0.00228121 0.00237951 0.00228121 0.00198502 0.00148844 0.000788577 -0.000115765 -0.00122233 -0.00252368 -0.00400243 -0.00562746 -0.00734915 -0.00909704 -0.0107763 -0.0122663 -0.0134232 -0.0140868 -0.0140911 -0.0132825 -0.0115426 -0.00881712 -0.00514813 -0.000701673 0.00421196 0.009137 0.0134952 0.0166421 0.017959 0.0169744 0.0134993 0.00775307 0.000439938 -0.00726061 -0.0138244 -0.017645 -0.0174053 -0.0124924 -0.00334985 0.00837305 0.0199863 0.0283071 0.0305347 0.0252595 0.0133021 -0.00198724 -0.0152528 -0.0205398 -0.013326 0.00742754 0.0379918 0.0700638 0.0927236 0.0957915 0.0735603 0.0275003 -0.0332749 -0.0942779 -0.140035 -0.159065 -0.147568 -0.110364 -0.0588049 -0.00659713 0.0346961 0.058751 0.0652374 0.0583985 0.0444787 0.0292462 0.0164904 0.0077183 0.00271759 0.000432438 -0.000299244 -0.00034855 -0.000211608 -8.87938e-05 -2.31613e-05 2.55901e-07 4.13355e-06 2.53456e-06 8.84899e-07 1.4823e-07 -3.26214e-08 -3.30074e-08 -1.18924e-08 -2.03756e-09 1.94463e-10 2.32755e-10 6.89345e-11 8.00406e-12 -1.49367e-12 -8.44104e-13 -1.55498e-13 -2.93257e-15 5.25623e-15 1.25913e-15 2.67432e-16 1.2882e-17 0 0 
0 0 1.03041e-17 2.42904e-16 1.15996e-15 5.14588e-15 -2.96193e-15 -1.64779e-13 -9.15564e-13 -1.53303e-12 1.04622e-11 8.66754e-11 2.85331e-10 1.46426e-10 -3.22513e-09 -1.75224e-08 -4.59365e-08 -2.928e-08 3.00885e-07 1.54746e-06 4.13818e-06 5.81436e-06 -4.13092e-06 -5.1629e-05 -0.00017419 -0.000382298 -0.000554108 -0.000246424 0.00153081 0.00641475 0.0164095 0.0330026 0.0557222 0.0806479 0.0998302 0.1026 0.0790931 0.0250808 -0.0539598 -0.141937 -0.215762 -0.252786 -0.239301 -0.176392 -0.0803859 0.0225281 0.10537 0.149389 0.149518 0.114468 0.0620049 0.0117821 -0.0213264 -0.0311039 -0.0202418 0.00241485 0.0260513 0.0417992 0.045151 0.0364494 0.0197557 0.000853987 -0.0147999 -0.0235554 -0.0241961 -0.0177643 -0.00683579 0.0054192 0.0160939 0.0231299 0.0255698 0.0235124 0.0178609 0.00997574 0.00133337 -0.00674663 -0.0132758 -0.0176668 -0.0197199 -0.0195555 -0.0175188 -0.0140793 -0.00974436 -0.0049912 -0.00022328 0.00425139 0.00822374 0.0115756 0.0142661 0.016313 0.0177751 0.0187346 0.0192856 0.0195245 0.019543 0.0194223 0.0192324 0.0190279 0.0188516 0.0187339 0.0186925 0.0187339 0.0188516 0.0190279 0.0192324 0.0194223 0.019543 0.0195245 0.0192856 0.0187346 0.0177751 0.016313 0.0142661 0.0115756 0.00822374 0.00425139 -0.00022328 -0.0049912 -0.00974436 -0.0140793 -0.0175188 -0.0195555 -0.0197199 -0.0176668 -0.0132758 -0.00674663 0.00133337 0.00997574 0.0178609 0.0235124 0.0255698 0.0231299 0.0160938 0.00541901 -0.00683589 -0.0177643 -0.0241959 -0.0235551 -0.0147995 0.000854222 0.0197558 0.0364493 0.045151 0.0417992 0.0260513 0.0024151 -0.0202416 -0.0311034 -0.0213255 0.0117823 0.0620055 0.114469 0.149519 0.149389 0.105371 0.0225284 -0.0803853 -0.176391 -0.239301 -0.252786 -0.215761 -0.141937 -0.0539602 0.0250804 0.0790925 0.1026 0.0998293 0.0806474 0.0557221 0.0330029 0.0164108 0.00641804 0.00153625 -0.000241061 -0.000547688 -0.00037829 -0.000172454 -5.11313e-05 -4.09081e-06 5.76212e-06 4.10137e-06 1.53382e-06 2.9821e-07 -2.90681e-08 -4.55612e-08 -1.73781e-08 -3.19814e-09 1.45555e-10 2.83119e-10 8.59921e-11 1.03771e-11 -1.52217e-12 -9.0865e-13 -1.6351e-13 -2.89783e-15 5.31055e-15 1.65248e-15 2.47742e-16 0 0 
0 0 2.07387e-16 1.48904e-15 4.89618e-15 -1.73946e-15 -1.56716e-13 -9.15564e-13 -1.53796e-12 1.18657e-11 9.879e-11 3.23676e-10 7.84121e-11 -4.46053e-09 -2.33826e-08 -5.86733e-08 -1.6252e-08 5.1625e-07 2.43228e-06 6.15549e-06 7.23767e-06 -1.3425e-05 -9.9828e-05 -0.000309033 -0.000631275 -0.000788616 9.86223e-05 0.00386942 0.0133873 0.0318504 0.0610235 0.0986432 0.136145 0.158527 0.147905 0.0907029 -0.0139495 -0.148908 -0.280738 -0.369579 -0.383988 -0.314349 -0.178378 -0.0155455 0.127418 0.213631 0.228405 0.182049 0.102885 0.0244679 -0.0271384 -0.0411067 -0.0225247 0.0128437 0.0465679 0.0647599 0.0620568 0.0417188 0.0126927 -0.0145801 -0.0319046 -0.035506 -0.0263217 -0.00880031 0.0110526 0.0276209 0.0370627 0.0379126 0.0309425 0.0185171 0.00374058 -0.0103458 -0.0213553 -0.0278609 -0.0294374 -0.0265053 -0.0200684 -0.0114197 -0.0018836 0.00737534 0.0154682 0.0218218 0.0261668 0.0284879 0.0289598 0.0278768 0.0255879 0.0224531 0.0188058 0.0149337 0.0110684 0.00738019 0.00398988 0.000973811 -0.00162838 -0.00380365 -0.00555555 -0.00689494 -0.00783619 -0.00839423 -0.00857848 -0.00839423 -0.00783619 -0.00689494 -0.00555555 -0.00380365 -0.00162838 0.000973811 0.00398988 0.00738019 0.0110684 0.0149337 0.0188058 0.0224531 0.0255879 0.0278768 0.0289598 0.0284879 0.0261668 0.0218218 0.0154682 0.00737534 -0.0018836 -0.0114197 -0.0200684 -0.0265053 -0.0294374 -0.0278609 -0.0213554 -0.0103458 0.00374055 0.0185169 0.0309423 0.0379124 0.0370628 0.0276211 0.0110529 -0.00879988 -0.0263213 -0.035506 -0.0319051 -0.0145803 0.0126931 0.0417192 0.0620578 0.0647603 0.0465682 0.0128447 -0.0225245 -0.0411059 -0.0271387 0.0244682 0.102885 0.182049 0.228405 0.213631 0.127419 -0.0155452 -0.178377 -0.314349 -0.383988 -0.369579 -0.280738 -0.148909 -0.0139505 0.0907017 0.147903 0.158527 0.136145 0.0986452 0.0610282 0.0318576 0.0133894 0.00384835 0.000100364 -0.000780105 -0.000624985 -0.00030607 -9.88932e-05 -1.32981e-05 7.17563e-06 6.10233e-06 2.41136e-06 5.11773e-07 -1.61701e-08 -5.82037e-08 -2.31932e-08 -4.42382e-09 7.81563e-11 3.21197e-10 9.80198e-11 1.17704e-11 -1.52718e-12 -9.08672e-13 -1.55335e-13 -1.43253e-15 2.84012e-15 1.1823e-15 0 0 
0 0 9.95596e-16 2.82048e-15 4.70855e-16 -1.34463e-13 -8.50591e-13 -1.53303e-12 1.18657e-11 1.03163e-10 3.44246e-10 1.96379e-11 -5.50677e-09 -2.86373e-08 -6.98705e-08 4.97253e-09 7.79362e-07 3.49232e-06 8.4656e-06 7.99179e-06 -2.92534e-05 -0.000172944 -0.000504241 -0.000966111 -0.00100439 0.00099055 0.0082043 0.0253284 0.0571056 0.105085 0.163307 0.215197 0.234867 0.194946 0.0797676 -0.10161 -0.310289 -0.48603 -0.56846 -0.522549 -0.356001 -0.118966 0.114856 0.277326 0.331602 0.283089 0.172 0.0527223 -0.0293795 -0.053602 -0.0267199 0.0256624 0.0734252 0.0948925 0.0835719 0.0474791 0.00303981 -0.0328181 -0.0489842 -0.0429894 -0.0201794 0.00956996 0.0358802 0.0511404 0.0521982 0.0403591 0.020132 -0.00259608 -0.0223105 -0.0350904 -0.0391638 -0.0348334 -0.0239648 -0.00927715 0.00634415 0.0203974 0.0310891 0.037452 0.0392893 0.0370155 0.0314442 0.0235835 0.0144658 0.00501238 -0.00403479 -0.0121493 -0.0190084 -0.0244705 -0.0285404 -0.0313243 -0.0329959 -0.0337601 -0.033831 -0.0334113 -0.0326904 -0.0318272 -0.0309569 -0.0301791 -0.02957 -0.0291826 -0.0290487 -0.0291826 -0.02957 -0.0301791 -0.0309569 -0.0318272 -0.0326904 -0.0334113 -0.033831 -0.0337601 -0.0329959 -0.0313243 -0.0285404 -0.0244705 -0.0190084 -0.0121493 -0.00403479 0.00501238 0.0144658 0.0235835 0.0314442 0.0370155 0.0392893 0.037452 0.0310891 0.0203974 0.00634415 -0.00927715 -0.0239648 -0.0348334 -0.0391641 -0.0350908 -0.0223108 -0.0025962 0.0201321 0.0403596 0.0521985 0.0511406 0.0358801 0.00956952 -0.0201797 -0.0429889 -0.0489833 -0.032817 0.00304092 0.0474794 0.0835715 0.0948912 0.0734244 0.0256621 -0.0267204 -0.0536019 -0.0293793 0.0527244 0.172001 0.283089 0.331604 0.277327 0.114857 -0.118965 -0.356001 -0.522548 -0.568457 -0.486032 -0.310292 -0.101612 0.0797668 0.194946 0.23487 0.215206 0.163316 0.10508 0.0570438 0.0251407 0.00812768 0.00098216 -0.000994294 -0.00095692 -0.000499574 -0.000171369 -2.89845e-05 7.92678e-06 8.39428e-06 3.46287e-06 7.72736e-07 4.86058e-09 -6.9321e-08 -2.84086e-08 -5.4621e-09 1.98855e-11 3.41637e-10 1.02367e-10 1.17713e-11 -1.52211e-12 -8.44014e-13 -1.36775e-13 -2.41094e-14 8.34088e-16 0 0 
0 0 1.00953e-15 -1.75908e-14 -1.06137e-13 -7.32296e-13 -1.50452e-12 1.04622e-11 9.879e-11 3.44246e-10 -3.55241e-12 -6.10952e-09 -3.22977e-08 -7.81179e-08 2.91148e-08 1.05151e-06 4.60401e-06 1.08234e-05 7.75451e-06 -5.19979e-05 -0.000271758 -0.000760265 -0.00137452 -0.00111947 0.00274325 0.0154044 0.0440932 0.0953771 0.169616 0.254269 0.320186 0.326054 0.233519 0.0291568 -0.257411 -0.552103 -0.758253 -0.795653 -0.638678 -0.332925 0.0206503 0.307683 0.447953 0.42527 0.286476 0.113014 -0.0184536 -0.066811 -0.036111 0.0362102 0.103095 0.130527 0.109481 0.0544668 -0.00760849 -0.0512375 -0.062473 -0.0422495 -0.00314774 0.037494 0.0646881 0.0705107 0.0553606 0.0261953 -0.00688799 -0.0342468 -0.0493119 -0.0497592 -0.037239 -0.0161616 0.00789645 0.0296754 0.0452712 0.0526071 0.0514377 0.0429664 0.0293173 0.0129679 -0.00371773 -0.018798 -0.0309265 -0.0393719 -0.0439515 -0.0449145 -0.0427897 -0.038265 -0.0320598 -0.0248554 -0.0172372 -0.00967513 -0.00251616 0.00401761 0.00979052 0.0147439 0.0188788 0.022231 0.0248596 0.0268214 0.0281748 0.0289694 0.0292294 0.0289694 0.0281748 0.0268214 0.0248596 0.022231 0.0188788 0.0147439 0.00979052 0.00401761 -0.00251616 -0.00967513 -0.0172372 -0.0248554 -0.0320598 -0.038265 -0.0427897 -0.0449145 -0.0439515 -0.0393719 -0.0309265 -0.018798 -0.00371773 0.0129679 0.0293173 0.0429664 0.0514377 0.052607 0.045271 0.0296752 0.00789584 -0.0161622 -0.0372392 -0.0497589 -0.0493114 -0.0342463 -0.00688796 0.0261946 0.0553601 0.0705111 0.0646891 0.0374954 -0.00314768 -0.04225 -0.0624737 -0.05124 -0.00761073 0.0544643 0.10948 0.130527 0.103096 0.0362116 -0.0361095 -0.0668067 -0.0184494 0.113019 0.28648 0.425274 0.447956 0.307686 0.0206537 -0.332922 -0.638673 -0.795649 -0.758252 -0.552102 -0.257411 0.0291602 0.233528 0.326065 0.320169 0.254151 0.169255 0.0945983 0.0436573 0.0152539 0.00271736 -0.00110893 -0.00136196 -0.000753442 -0.000269344 -5.15318e-05 7.69526e-06 1.07341e-05 4.56586e-06 1.04272e-06 2.87925e-08 -7.75125e-08 -3.20428e-08 -6.06054e-09 -3.11568e-12 3.4166e-10 9.8034e-11 1.038e-11 -1.49675e-12 -7.53097e-13 -2.04552e-13 -2.24178e-14 0 0 
0 0 -1.53622e-14 -1.58166e-13 -6.02148e-13 -1.42479e-12 8.07089e-12 8.66754e-11 3.23676e-10 1.96379e-11 -6.10952e-09 -3.36113e-08 -8.24659e-08 4.83669e-08 1.27891e-06 5.59396e-06 1.29335e-05 6.54905e-06 -7.99019e-05 -0.000390288 -0.00106333 -0.00182493 -0.0010432 0.00563669 0.0262313 0.0713259 0.149373 0.258022 0.374266 0.450767 0.426031 0.25077 -0.0783351 -0.496341 -0.878453 -1.08447 -1.02238 -0.69806 -0.220964 0.241442 0.538398 0.60044 0.461102 0.228021 0.0232158 -0.0737194 -0.0523225 0.0397222 0.132435 0.171955 0.142627 0.0661073 -0.0167549 -0.068821 -0.0728013 -0.03505 0.0216316 0.0705517 0.0925184 0.0818249 0.0457893 -0.000362533 -0.0402913 -0.0621526 -0.061517 -0.0412717 -0.00936239 0.0244202 0.051386 0.0659005 0.0661059 0.0535571 0.0321392 0.00677981 -0.0177436 -0.0376579 -0.0506104 -0.0557344 -0.053431 -0.0449959 -0.0322063 -0.016971 -0.00105353 0.0141051 0.0274734 0.038439 0.0467324 0.0523783 0.0556161 0.0568017 0.0563581 0.0547199 0.0522886 0.0494158 0.0464143 0.043526 0.0409455 0.0388081 0.0372141 0.0362295 0.0358944 0.0362295 0.0372141 0.0388081 0.0409455 0.043526 0.0464143 0.0494158 0.0522886 0.0547199 0.0563581 0.0568017 0.0556161 0.0523783 0.0467324 0.038439 0.0274734 0.0141051 -0.00105353 -0.016971 -0.0322063 -0.0449959 -0.053431 -0.0557344 -0.0506104 -0.0376579 -0.0177436 0.00677968 0.0321389 0.0535565 0.0661049 0.0659004 0.0513858 0.0244205 -0.00936192 -0.0412715 -0.0615176 -0.0621535 -0.0402905 -0.000360807 0.0457909 0.0818249 0.0925172 0.0705497 0.0216293 -0.0350527 -0.072802 -0.068821 -0.0167548 0.066108 0.142628 0.171957 0.132437 0.0397231 -0.0523189 -0.0737185 0.0232157 0.228025 0.461105 0.600444 0.538405 0.241443 -0.220965 -0.698058 -1.02237 -1.08446 -0.878445 -0.496329 -0.078328 0.25073 0.425831 0.450195 0.373 0.255774 0.147871 0.0706236 0.0259802 0.0055837 -0.0010341 -0.00180882 -0.00105403 -0.000386896 -7.92008e-05 6.50378e-06 1.28288e-05 5.54829e-06 1.26835e-06 4.78835e-08 -8.18349e-08 -3.33488e-08 -6.06102e-09 1.98626e-11 3.21261e-10 8.60149e-11 7.98621e-12 -1.4966e-12 -6.67837e-13 -1.45484e-13 0 0 
0 0 -1.04701e-13 -5.41463e-13 -1.33545e-12 5.32505e-12 6.94895e-11 2.85331e-10 7.84121e-11 -5.50677e-09 -3.22977e-08 -8.24659e-08 5.57222e-08 1.40891e-06 6.28071e-06 1.45163e-05 4.82966e-06 -0.00010882 -0.000514885 -0.00138424 -0.00227202 -0.00071606 0.00977412 0.0409618 0.107772 0.220473 0.371705 0.523338 0.603605 0.526491 0.233993 -0.255597 -0.824038 -1.28044 -1.4393 -1.21405 -0.672037 -0.0132036 0.522063 0.766042 0.695023 0.422309 0.123462 -0.0583094 -0.0738815 0.0295013 0.155078 0.218159 0.187344 0.0889533 -0.0190517 -0.0833005 -0.0809034 -0.0247502 0.0494105 0.103705 0.11536 0.0836836 0.0261366 -0.0321003 -0.069337 -0.074842 -0.0506044 -0.00825853 0.0365574 0.0698767 0.0832481 0.0750791 0.0496974 0.0150224 -0.0200922 -0.0481506 -0.0643745 -0.0671032 -0.0574833 -0.0385862 -0.0144451 0.0108592 0.0338693 0.0521152 0.0642355 0.0698724 0.0694563 0.0639654 0.0546361 0.0427861 0.0296286 0.0161897 0.0032537 -0.00863347 -0.0191362 -0.0281216 -0.0355721 -0.041578 -0.0462875 -0.0498731 -0.052521 -0.0543852 -0.0556149 -0.0563172 -0.0565402 -0.0563172 -0.0556149 -0.0543852 -0.052521 -0.0498731 -0.0462875 -0.041578 -0.0355721 -0.0281216 -0.0191362 -0.00863347 0.0032537 0.0161897 0.0296286 0.0427861 0.0546361 0.0639654 0.0694563 0.0698724 0.0642355 0.0521152 0.0338693 0.0108592 -0.0144451 -0.0385862 -0.0574834 -0.0671035 -0.0643748 -0.048151 -0.0200923 0.0150226 0.0496981 0.0750798 0.0832484 0.0698766 0.036556 -0.00825793 -0.0506016 -0.0748407 -0.0693386 -0.0321027 0.0261344 0.0836807 0.115357 0.103704 0.04941 -0.0247514 -0.0809027 -0.0833009 -0.0190493 0.0889579 0.187347 0.218163 0.15508 0.029499 -0.0738825 -0.058312 0.123464 0.42231 0.695026 0.766041 0.522062 -0.0132049 -0.67203 -1.21403 -1.43928 -1.28043 -0.824108 -0.255905 0.233156 0.524685 0.600365 0.518472 0.367934 0.218306 0.106745 0.0405804 0.00968398 -0.000710649 -0.00225255 -0.0013724 -0.000510493 -0.000107881 4.80176e-06 1.44006e-05 6.23006e-06 1.39743e-06 5.51824e-08 -8.18403e-08 -3.20477e-08 -5.46344e-09 7.81296e-11 2.83196e-10 6.88995e-11 5.31417e-12 8.63188e-14 -3.83019e-13 0 0 
0 0 -2.96858e-13 -2.17099e-13 2.85706e-12 5.06274e-11 2.34602e-10 1.46426e-10 -4.46053e-09 -2.86373e-08 -7.81179e-08 4.83669e-08 1.40891e-06 6.52671e-06 1.53625e-05 3.33354e-06 -0.000133003 -0.000626132 -0.00168214 -0.00266785 -0.000152771 0.0149395 0.0590199 0.152424 0.307409 0.508997 0.698281 0.772864 0.618863 0.174135 -0.507024 -1.23377 -1.73648 -1.79006 -1.33933 -0.547139 0.275356 0.823024 0.945942 0.706673 0.318305 0.010872 -0.0889867 0.000137645 0.160142 0.263164 0.245826 0.130208 -0.00762121 -0.0916844 -0.0880791 -0.0151164 0.0762983 0.134713 0.133648 0.0795249 0.00253495 -0.0613799 -0.0871711 -0.0691996 -0.0199027 0.0382775 0.0830952 0.100246 0.086767 0.0498097 0.00251582 -0.0410362 -0.0699147 -0.0786353 -0.0674259 -0.0410169 -0.00657893 0.0282891 0.0572281 0.0760761 0.0830836 0.0786904 0.0649372 0.0447303 0.0212197 -0.00270726 -0.0247362 -0.0432597 -0.0573827 -0.0668707 -0.0719234 -0.0730749 -0.0710669 -0.0666779 -0.0606845 -0.0537859 -0.0465555 -0.039444 -0.0328222 -0.0269374 -0.0219645 -0.0180135 -0.0151488 -0.0134136 -0.0128328 -0.0134136 -0.0151488 -0.0180135 -0.0219645 -0.0269374 -0.0328222 -0.039444 -0.0465555 -0.0537859 -0.0606845 -0.0666779 -0.0710669 -0.0730749 -0.0719234 -0.0668707 -0.0573827 -0.0432597 -0.0247362 -0.00270726 0.0212197 0.0447303 0.0649372 0.0786904 0.0830836 0.0760761 0.0572279 0.0282889 -0.00657898 -0.0410164 -0.067426 -0.0786345 -0.0699135 -0.0410352 0.00251566 0.0498084 0.0867655 0.100249 0.0830972 0.0382758 -0.0199039 -0.0692015 -0.0871755 -0.0613833 0.00253074 0.0795249 0.133648 0.134716 0.0762979 -0.0151173 -0.088075 -0.0916812 -0.00761866 0.130206 0.245825 0.263158 0.160139 0.00012913 -0.088996 0.0108714 0.318303 0.706674 0.94594 0.823023 0.275364 -0.54712 -1.33932 -1.79017 -1.73692 -1.23493 -0.509458 0.169877 0.612566 0.764991 0.691137 0.504016 0.304498 0.151017 0.0584843 0.0148045 -0.000153009 -0.00264555 -0.00166802 -0.000620874 -0.000131872 3.32005e-06 1.52416e-05 6.47467e-06 1.39755e-06 4.7896e-08 -7.75291e-08 -2.84174e-08 -4.42569e-09 1.455e-10 2.32879e-10 5.17815e-11 1.15002e-11 4.21472e-13 0 0 
0 0 9.49024e-14 7.12829e-12 3.42724e-11 1.78723e-10 1.95826e-10 -3.22513e-09 -2.33826e-08 -6.98705e-08 2.91148e-08 1.27891e-06 6.28071e-06 1.53625e-05 2.7427e-06 -0.000146834 -0.000703485 -0.00191279 -0.0029733 0.000536446 0.0205287 0.0787679 0.202053 0.405101 0.663526 0.892023 0.950921 0.696489 0.0688452 -0.825968 -1.70635 -2.21633 -2.10445 -1.37887 -0.32998 0.610744 1.09797 1.04463 0.634777 0.181686 -0.0656992 -0.0442093 0.13435 0.29347 0.314608 0.195761 0.0258772 -0.0894877 -0.0954913 -0.010523 0.0985581 0.163192 0.150922 0.0757628 -0.0177328 -0.0824309 -0.0918469 -0.0488603 0.0209115 0.0842551 0.11549 0.105321 0.0613424 0.00217396 -0.0510657 -0.0822696 -0.084466 -0.0601854 -0.0188835 0.0270203 0.0659064 0.0896801 0.0948758 0.0824637 0.0566697 0.0234192 -0.0111579 -0.0418291 -0.064936 -0.0786015 -0.0825447 -0.0777511 -0.0659606 -0.0493004 -0.0298902 -0.00963137 0.00996407 0.027837 0.0433184 0.0561286 0.0662229 0.0738153 0.0792151 0.0828065 0.0849824 0.0861331 0.0865952 0.0866432 0.0865251 0.0864 0.0863437 0.0864 0.0865251 0.0866432 0.0865952 0.0861331 0.0849824 0.0828065 0.0792151 0.0738153 0.0662229 0.0561286 0.0433184 0.027837 0.00996407 -0.00963137 -0.0298902 -0.0493004 -0.0659606 -0.0777511 -0.0825447 -0.0786015 -0.064936 -0.0418291 -0.0111579 0.0234192 0.0566696 0.0824636 0.0948755 0.08968 0.065907 0.0270221 -0.018882 -0.0601849 -0.0844669 -0.0822712 -0.0510645 0.00217748 0.0613409 0.105318 0.115486 0.0842487 0.0209055 -0.0488648 -0.0918475 -0.0824263 -0.0177264 0.0757649 0.15092 0.163191 0.098557 -0.0105265 -0.0955045 -0.0894992 0.0258599 0.195749 0.314591 0.29346 0.134338 -0.0442128 -0.0657089 0.181688 0.634783 1.04464 1.09799 0.610732 -0.33013 -1.37944 -2.10599 -2.21947 -1.71172 -0.833659 0.0597401 0.687785 0.941035 0.883323 0.657292 0.40139 0.200237 0.0780686 0.0203465 0.000529705 -0.00294897 -0.00189699 -0.000697655 -0.000145601 2.73474e-06 1.52429e-05 6.2311e-06 1.26868e-06 2.88103e-08 -6.93468e-08 -2.32044e-08 -3.20011e-09 1.9559e-10 1.84902e-10 5.77782e-11 8.06994e-12 0 0 