<?xml version="1.0"?>
<VTKFile type="ImageData" version="0.1" byte_order="LittleEndian">
<ImageData WholeExtent="0 199 0 199 0 0" Origin="0 0 0" Spacing="15 15 0">
<Piece Extent="0 199 0 199 0 0">
<PointData Scalars="Amplitude">
<DataArray type="Float32" Name="Amplitude" format="ascii">
0 0 0 0 0 0 0 0 0 0 0 0 0 0 0 0 0 0 0 0 0 0 0 0 0 0 0 0 0 0 0 0 0 0 0 0 0 0 0 0 0 0 0 0 0 0 0 0 0 0 0 0 0 0 0 0 0 0 0 0 0 0 0 0 0 0 0 0 0 0 0 0 0 0 0 0 0 0 0 0 0 0 0 0 0 0 0 0 0 0 0 0 0 0 0 0 0 0 0 0 0 0 0 0 0 0 0 0 0 0 0 0 0 0 0 0 0 0 0 0 0 0 0 0 0 0 0 0 0 0 0 0 0 0 0 0 0 0 0 0 0 0 0 0 0 0 0 0 0 0 0 0 0 0 0 0 0 0 0 0 0 0 0 0 0 0 0 0 0 0 0 0 0 0 0 0 0 0 0 0 0 0 0 0 0 0 0 0 0 0 0 0 0 0 0 0 0 0 0 0 
0 0 0 0 0 0 0 0 0 0 0 0 0 0 0 0 0 0 0 0 0 0 0 0 0 0 0 0 0 0 0 0 0 0 0 0 0 0 0 0 0 0 0 0 0 0 0 0 0 0 0 0 0 0 0 0 0 0 0 0 0 0 0 0 0 0 0 0 0 0 0 0 0 0 0 0 0 0 0 0 0 0 0 0 0 0 0 0 0 0 0 0 0 0 0 0 0 0 0 0 0 0 0 0 0 0 0 0 0 0 0 0 0 0 0 0 0 0 0 0 0 0 0 0 0 0 0 0 0 0 0 0 0 0 0 0 0 0 0 0 0 0 0 0 0 0 0 0 0 0 0 0 0 0 0 0 0 0 0 0 0 0 0 0 0 0 0 0 0 0 0 0 0 0 0 0 0 0 0 0 0 0 0 0 0 0 0 0 0 0 0 0 0 0 0 0 0 0 0 0 
0 0 -1.5611e-09 -2.09455e-08 -5.11361e-08 1.24846e-08 7.83389e-08 -2.07894e-07 -6.77697e-07 -3.6399e-07 4.12016e-07 -7.06328e-07 -3.81843e-06 -4.72451e-06 -1.76941e-06 -9.73798e-07 -7.79744e-06 -1.66998e-05 -1.74972e-05 -1.1227e-05 -1.01296e-05 -2.05643e-05 -3.39412e-05 -3.7706e-05 -3.0777e-05 -2.40545e-05 -2.71858e-05 -3.84067e-05 -4.73764e-05 -4.60163e-05 -3.59188e-05 -2.59861e-05 -2.37781e-05 -2.9067e-05 -3.4618e-05 -3.25205e-05 -2.03054e-05 -2.24379e-06 1.44103e-05 2.47572e-05 2.92802e-05 3.29132e-05 4.13714e-05 5.73953e-05 7.91787e-05 0.000101545 0.000118763 0.000127265 0.000126912 0.000120443 0.000111715 0.000103769 9.75992e-05 9.20578e-05 8.46801e-05 7.29384e-05 5.53992e-05 3.23123e-05 5.5346e-06 -2.20316e-05 -4.72267e-05 -6.73688e-05 -8.07902e-05 -8.70496e-05 -8.68012e-05 -8.13817e-05 -7.23073e-05 -6.09708e-05 -4.86416e-05 -3.66137e-05 -2.61981e-05 -1.84897e-05 -1.40468e-05 -1.27036e-05 -1.36404e-05 -1.5709e-05 -1.78114e-05 -1.91547e-05 -1.9336e-05 -1.82764e-05 -1.61317e-05 -1.31721e-05 -9.69576e-06 -5.98139e-06 -2.2743e-06 1.22364e-06 4.37649e-06 7.10896e-06 9.39423e-06 1.12423e-05 1.26788e-05 1.37409e-05 1.44857e-05 1.49761e-05 1.52741e-05 1.54334e-05 1.54914e-05 1.54914e-05 1.54742e-05 1.54666e-05 1.54667e-05 1.54708e-05 1.54813e-05 1.5499e-05 1.54975e-05 1.54374e-05 1.52765e-05 1.49772e-05 1.44862e-05 1.37424e-05 1.26804e-05 1.12419e-05 9.39704e-06 7.13299e-06 4.43898e-06 1.29914e-06 -2.3506e-06 -6.66949e-06 -1.18867e-05 -1.81132e-05 -2.4898e-05 -3.0731e-05 -3.30266e-05 -2.91219e-05 -1.82424e-05 -3.24394e-06 9.61797e-06 1.37773e-05 6.61413e-06 -8.63543e-06 -2.55068e-05 -3.94751e-05 -5.07374e-05 -6.19801e-05 -7.39876e-05 -8.42369e-05 -8.95456e-05 -8.87372e-05 -8.2036e-05 -6.9092e-05 -4.92756e-05 -2.37773e-05 3.99125e-06 3.04018e-05 5.30995e-05 7.06831e-05 8.25203e-05 8.96743e-05 9.49849e-05 0.000101233 0.000109325 0.000118016 0.000124464 0.000125022 0.000116799 9.97367e-05 7.75048e-05 5.59944e-05 4.03244e-05 3.2139e-05 2.86732e-05 2.43347e-05 1.4265e-05 -2.09583e-06 -1.99604e-05 -3.20731e-05 -3.40656e-05 -2.83524e-05 -2.29008e-05 -2.50368e-05 -3.49983e-05 -4.51241e-05 -4.63924e-05 -3.71629e-05 -2.61126e-05 -2.30877e-05 -2.97969e-05 -3.67192e-05 -3.30655e-05 -1.98995e-05 -9.63786e-06 -1.07821e-05 -1.70406e-05 -1.63049e-05 -7.54851e-06 -8.44354e-07 -1.66981e-06 -4.61997e-06 -3.74191e-06 -6.78583e-07 4.15769e-07 -3.55993e-07 -6.65779e-07 -2.05995e-07 6.89234e-08 1.25034e-08 -2.50667e-08 -2.13632e-08 0 0 
0 0 -2.09455e-08 -2.80354e-08 5.71913e-09 5.16249e-08 -2.99678e-07 -8.14543e-07 -3.17829e-07 3.44046e-07 -2.04484e-06 -6.12072e-06 -5.45509e-06 -1.37961e-06 -5.31992e-06 -1.98254e-05 -2.94807e-05 -2.32387e-05 -1.58434e-05 -2.88644e-05 -5.68773e-05 -7.29283e-05 -6.51114e-05 -5.16249e-05 -5.69293e-05 -8.19995e-05 -0.00010472 -0.000105688 -8.76944e-05 -7.09391e-05 -7.21675e-05 -8.91601e-05 -0.000104161 -0.000100482 -7.61536e-05 -4.40615e-05 -2.0333e-05 -1.1608e-05 -1.09233e-05 -3.80422e-06 2.11321e-05 6.48423e-05 0.00011793 0.000166897 0.00020196 0.000221527 0.000231495 0.000240673 0.00025526 0.000275548 0.000295882 0.000307456 0.000302315 0.000276596 0.000231727 0.000173575 0.000110261 4.96227e-05 -2.74686e-06 -4.4422e-05 -7.59752e-05 -9.9862e-05 -0.00011903 -0.000135802 -0.000151359 -0.000165441 -0.000176447 -0.000181821 -0.000179109 -0.000167068 -0.000146491 -0.000120102 -9.15804e-05 -6.42346e-05 -4.01551e-05 -2.01111e-05 -3.96907e-06 8.70921e-06 1.8319e-05 2.51102e-05 2.92311e-05 3.08535e-05 3.02444e-05 2.77841e-05 2.38675e-05 1.89125e-05 1.33307e-05 7.4839e-06 1.6621e-06 -3.91188e-06 -9.0865e-06 -1.37395e-05 -1.7797e-05 -2.1243e-05 -2.41046e-05 -2.64383e-05 -2.82842e-05 -2.96564e-05 -3.05816e-05 -3.11094e-05 -3.12704e-05 -3.11005e-05 -3.05664e-05 -2.9639e-05 -2.82676e-05 -2.64246e-05 -2.40959e-05 -2.12392e-05 -1.77943e-05 -1.37365e-05 -9.08864e-06 -3.91332e-06 1.69749e-06 7.60536e-06 1.35296e-05 1.89473e-05 2.2933e-05 2.41288e-05 2.11108e-05 1.33184e-05 2.31182e-06 -7.4604e-06 -9.98332e-06 -1.54898e-06 1.46255e-05 2.71687e-05 2.17978e-05 -8.93515e-06 -5.88107e-05 -0.000111151 -0.000150481 -0.0001723 -0.000181965 -0.000185315 -0.000182677 -0.000172257 -0.00015609 -0.000139041 -0.000122939 -0.000104647 -8.02751e-05 -4.81129e-05 -7.05413e-06 4.4388e-05 0.00010498 0.000168489 0.000226146 0.000270413 0.0002962 0.000301601 0.000289916 0.000269539 0.000249729 0.000235738 0.000226901 0.00021732 0.000198488 0.000164232 0.000115833 6.31859e-05 2.00546e-05 -4.16542e-06 -1.06777e-05 -1.09913e-05 -1.94143e-05 -4.27179e-05 -7.43203e-05 -9.83409e-05 -0.000102009 -8.71391e-05 -7.01259e-05 -6.85901e-05 -8.48738e-05 -0.000102166 -0.000101551 -7.9404e-05 -5.48002e-05 -4.96762e-05 -6.31208e-05 -7.09966e-05 -5.52962e-05 -2.77568e-05 -1.5019e-05 -2.24574e-05 -2.87519e-05 -1.93091e-05 -5.04742e-06 -1.21783e-06 -5.30521e-06 -6.00481e-06 -1.99383e-06 3.60566e-07 -3.07701e-07 -8.15917e-07 -2.99388e-07 7.8901e-08 1.60697e-08 -2.53209e-08 0 0 
0 0 -5.11361e-08 5.71913e-09 1.77749e-07 -1.06457e-07 -1.1953e-06 -1.02277e-06 1.31534e-06 -3.55758e-07 -8.74356e-06 -1.06452e-05 6.00185e-07 2.17985e-06 -2.37658e-05 -4.93525e-05 -3.68858e-05 -6.71975e-06 -1.88371e-05 -7.93811e-05 -0.000122136 -0.000101677 -5.62012e-05 -5.5788e-05 -0.000114158 -0.000175032 -0.000180958 -0.00013488 -9.08758e-05 -9.6296e-05 -0.000147056 -0.000195335 -0.000196239 -0.000146047 -8.13312e-05 -4.55646e-05 -5.41087e-05 -8.47447e-05 -9.71332e-05 -6.26002e-05 1.748e-05 0.000115398 0.000196753 0.000241534 0.000253793 0.000255921 0.000273581 0.000320899 0.000393296 0.000470826 0.000528067 0.000545239 0.000515653 0.000446735 0.000355511 0.000261397 0.000179382 0.000116293 7.05444e-05 3.45717e-05 -1.36016e-06 -4.52234e-05 -0.000100428 -0.000165021 -0.000232868 -0.000295585 -0.000344515 -0.000372067 -0.000373008 -0.000345649 -0.00029308 -0.000223119 -0.000146437 -7.35242e-05 -1.22278e-05 3.34612e-05 6.30805e-05 7.83503e-05 8.19275e-05 7.64749e-05 6.44364e-05 4.79365e-05 2.87882e-05 8.55331e-06 -1.15042e-05 -3.03652e-05 -4.73318e-05 -6.20075e-05 -7.4261e-05 -8.41537e-05 -9.18245e-05 -9.74461e-05 -0.000101304 -0.000103745 -0.000105134 -0.000105806 -0.000105965 -0.000105793 -0.000105499 -0.000105285 -0.000105195 -0.000105275 -0.00010548 -0.000105767 -0.000105933 -0.000105776 -0.000105115 -0.000103736 -0.000101297 -9.74468e-05 -9.18395e-05 -8.414e-05 -7.41239e-05 -6.16846e-05 -4.69949e-05 -3.08707e-05 -1.50932e-05 -2.22578e-06 5.51927e-06 8.49727e-06 1.15616e-05 2.34948e-05 5.17056e-05 9.36803e-05 0.000131524 0.000137197 8.95482e-05 -8.41685e-06 -0.000127962 -0.000233606 -0.000306662 -0.000350715 -0.000375612 -0.000380577 -0.000357055 -0.000304751 -0.000237245 -0.000169768 -0.000108182 -5.29655e-05 -6.90538e-06 2.8835e-05 6.24425e-05 0.000107472 0.000171596 0.000253324 0.000345804 0.000436668 0.00050648 0.000536104 0.000518349 0.000461642 0.000385456 0.000313727 0.00026668 0.000250077 0.000249544 0.000238326 0.000194048 0.000113459 1.68067e-05 -6.21113e-05 -9.608e-05 -8.34167e-05 -5.21655e-05 -4.26557e-05 -7.77225e-05 -0.000142456 -0.000193093 -0.000192376 -0.000143605 -9.19802e-05 -8.59072e-05 -0.000129719 -0.000175664 -0.000170294 -0.000110477 -5.29678e-05 -5.35282e-05 -9.87056e-05 -0.000119215 -7.71955e-05 -1.75481e-05 -5.76954e-06 -3.58041e-05 -4.83003e-05 -2.31176e-05 2.43333e-06 7.62815e-07 -1.04349e-05 -8.58121e-06 -3.04938e-07 1.30362e-06 -1.03067e-06 -1.1497e-06 -4.71504e-08 7.89469e-08 1.89203e-08 0 0 
0 0 1.24846e-08 5.16249e-08 -1.06457e-07 -1.13685e-06 -7.58181e-07 1.50734e-06 -1.78595e-06 -1.1113e-05 -8.13231e-06 6.417e-06 -5.06427e-06 -4.58034e-05 -5.61713e-05 -1.37578e-05 5.66186e-06 -6.43893e-05 -0.000156423 -0.000150805 -6.44063e-05 -3.63298e-05 -0.000131417 -0.000256244 -0.000280835 -0.000194933 -0.000112028 -0.000133997 -0.000246307 -0.000343487 -0.000337376 -0.00023848 -0.000138253 -0.000121046 -0.000193388 -0.000284543 -0.000308235 -0.000229652 -8.5696e-05 4.80619e-05 0.000112922 0.000104453 6.99899e-05 7.45046e-05 0.000159421 0.00032034 0.000512841 0.000678012 0.000772357 0.000785183 0.000738194 0.000670926 0.000620348 0.000604969 0.00061962 0.000640498 0.000636493 0.000581982 0.000465812 0.00029414 8.78101e-05 -0.000124764 -0.000315184 -0.000461366 -0.000550748 -0.000582003 -0.000563125 -0.000508083 -0.000431165 -0.000344287 -0.000256636 -0.000176363 -0.000111441 -6.89008e-05 -5.24766e-05 -6.0658e-05 -8.70527e-05 -0.000122376 -0.000157445 -0.000185365 -0.000202146 -0.000206555 -0.000199446 -0.000182888 -0.000159137 -0.000130501 -9.91969e-05 -6.71356e-05 -3.58483e-05 -6.44443e-06 2.04473e-05 4.44226e-05 6.52002e-05 8.27172e-05 9.70943e-05 0.000108719 0.000117964 0.000124979 0.000129788 0.00013256 0.000133397 0.000132562 0.000129804 0.000125025 0.000118035 0.000108788 9.71417e-05 8.2745e-05 6.52016e-05 4.43855e-05 2.04441e-05 -6.23989e-06 -3.53083e-05 -6.64753e-05 -9.96534e-05 -0.000135527 -0.000175423 -0.00021959 -0.00026381 -0.000295694 -0.000294939 -0.000242628 -0.000137297 -7.3868e-06 9.48221e-05 0.000121773 6.42712e-05 -4.04285e-05 -0.000139809 -0.000210128 -0.000269677 -0.000347334 -0.000443601 -0.000529746 -0.000579679 -0.000588596 -0.000556881 -0.000473609 -0.000328342 -0.000133609 7.93319e-05 0.000281217 0.000451157 0.000569366 0.000623614 0.000624487 0.000602877 0.000590082 0.00060561 0.000655068 0.00072347 0.00077297 0.000761063 0.000667086 0.000504058 0.000314256 0.000154517 7.02122e-05 6.73952e-05 0.000104088 0.00011391 4.94455e-05 -8.36621e-05 -0.000226001 -0.000302904 -0.00027873 -0.000188268 -0.000116545 -0.000133387 -0.000232481 -0.000330498 -0.000336566 -0.000239773 -0.000127413 -0.000106081 -0.000188299 -0.000273518 -0.000249595 -0.000126648 -3.30412e-05 -6.11353e-05 -0.000146881 -0.000152791 -6.21598e-05 6.7821e-06 -1.26977e-05 -5.48735e-05 -4.4817e-05 -4.67953e-06 6.57099e-06 -7.90227e-06 -1.09367e-05 -1.75896e-06 1.53929e-06 -6.84258e-07 -1.23265e-06 -3.25695e-07 8.39071e-08 0 0 
0 0 7.83389e-08 -2.99678e-07 -1.1953e-06 -7.58181e-07 1.71935e-06 -2.10277e-06 -1.2902e-05 -7.14637e-06 1.06461e-05 -1.2854e-05 -6.53102e-05 -5.4133e-05 1.13137e-05 -3.82319e-06 -0.000136179 -0.000223621 -0.000133892 -8.27953e-06 -7.65184e-05 -0.000298683 -0.000420541 -0.000319853 -0.000148093 -0.000136224 -0.00032125 -0.000519242 -0.000542648 -0.000387224 -0.000219324 -0.000206962 -0.000362573 -0.000545833 -0.000596392 -0.000465696 -0.000246282 -8.70375e-05 -7.59983e-05 -0.000183119 -0.000289905 -0.000276498 -9.82256e-05 0.000193849 0.000491597 0.000697067 0.000773587 0.000756295 0.000724804 0.000755253 0.000882713 0.00108737 0.00130629 0.00146315 0.00149855 0.00139036 0.00115773 0.000849603 0.000525802 0.00023879 2.07843e-05 -0.00012105 -0.000200999 -0.000246033 -0.00028449 -0.000337891 -0.000417189 -0.0005222 -0.000641641 -0.00075525 -0.000838456 -0.000870476 -0.000842286 -0.000760239 -0.000641224 -0.000505099 -0.000368026 -0.000239081 -0.000121684 -1.63714e-05 7.63459e-05 0.000155236 0.000219068 0.000266799 0.000298343 0.000314634 0.000317454 0.000309137 0.000292346 0.000269694 0.000243233 0.000214785 0.000185913 0.00015807 0.000132491 0.000110082 9.12102e-05 7.61166e-05 6.50554e-05 5.83709e-05 5.6056e-05 5.83603e-05 6.50782e-05 7.6203e-05 9.13338e-05 0.000110195 0.000132585 0.000158121 0.000185878 0.000214762 0.000243523 0.000270566 0.000293584 0.000309049 0.000310891 0.000290916 0.000241819 0.000163347 6.99084e-05 -7.52241e-06 -3.3755e-05 3.21722e-06 6.74925e-05 7.93481e-05 -3.70401e-05 -0.00028913 -0.000593339 -0.000827641 -0.000922838 -0.00090414 -0.000841821 -0.000772026 -0.000679535 -0.000553496 -0.000427168 -0.000343756 -0.00030311 -0.000269171 -0.000215474 -0.000132539 7.74513e-07 0.000213877 0.000505078 0.00082985 0.00113197 0.00136242 0.00147468 0.00144037 0.00128104 0.00106378 0.000863988 0.000738067 0.000707668 0.000742849 0.000764751 0.000689577 0.000484757 0.000190273 -9.8237e-05 -0.000275144 -0.000288214 -0.000179758 -6.95472e-05 -7.834e-05 -0.000237794 -0.000458535 -0.000589516 -0.000537807 -0.000353437 -0.000197748 -0.000210727 -0.000378447 -0.000532383 -0.000507047 -0.000311297 -0.000128763 -0.000140543 -0.000310606 -0.000410722 -0.000290888 -7.17098e-05 -4.69561e-06 -0.000129419 -0.000218673 -0.000132639 -2.14914e-06 1.23838e-05 -5.27243e-05 -6.39998e-05 -1.22625e-05 1.07842e-05 -6.97901e-06 -1.26632e-05 -1.95016e-06 1.61911e-06 -9.86737e-07 -8.80234e-07 -2.68856e-07 0 0 
0 0 -2.07894e-07 -8.14543e-07 -1.02277e-06 1.50734e-06 -2.10277e-06 -1.34809e-05 -5.6767e-06 1.35728e-05 -2.37922e-05 -8.27079e-05 -3.56656e-05 4.12149e-05 -5.06748e-05 -0.000237641 -0.000244843 -4.0271e-05 3.55914e-05 -0.000244695 -0.000564562 -0.000512506 -0.000199886 -7.30318e-05 -0.000335353 -0.000723661 -0.000830457 -0.00057963 -0.000276866 -0.000254488 -0.00055297 -0.00090088 -0.000988037 -0.000750943 -0.000399486 -0.000220442 -0.000341426 -0.0006404 -0.000861456 -0.000807948 -0.000471726 -2.11504e-05 0.000326695 0.000444642 0.00036445 0.000241369 0.000252586 0.000499814 0.000959048 0.0015033 0.00197054 0.00223471 0.0022533 0.00207166 0.00179053 0.00151941 0.00133432 0.00125562 0.00124936 0.00124895 0.0011814 0.000994397 0.000669598 0.000225791 -0.000289229 -0.000809552 -0.00126902 -0.00161358 -0.00181355 -0.00185964 -0.00175722 -0.00152189 -0.0011826 -0.000782699 -0.000377066 -2.07247e-05 0.000246237 0.000406146 0.000463628 0.000438266 0.000355042 0.000237011 0.000103023 -3.3261e-05 -0.000162884 -0.00028019 -0.000381601 -0.000465472 -0.000531287 -0.00058033 -0.0006146 -0.000636846 -0.000649118 -0.000653549 -0.000652008 -0.000647242 -0.000641505 -0.000636076 -0.000631254 -0.000628105 -0.000626638 -0.000628084 -0.000631165 -0.000635936 -0.000641363 -0.000647109 -0.000651897 -0.000653526 -0.0006491 -0.000636417 -0.000613273 -0.000578229 -0.000530476 -0.000473011 -0.000413404 -0.000361543 -0.000319733 -0.000270704 -0.000171313 3.03988e-05 0.000350738 0.000722416 0.000990819 0.000986925 0.000646915 7.81817e-05 -0.000507868 -0.0009559 -0.00126574 -0.00152837 -0.00177454 -0.00192076 -0.00187252 -0.00163199 -0.0012715 -0.000834374 -0.000328445 0.00020088 0.000654817 0.000965866 0.00114074 0.00121504 0.00122026 0.0012166 0.00128963 0.00148218 0.00175686 0.00203299 0.00221622 0.00220628 0.00194474 0.00147644 0.000938124 0.000486644 0.000240667 0.000230193 0.000359512 0.000445262 0.000327933 -1.91856e-05 -0.000465612 -0.00079676 -0.000848191 -0.000628555 -0.000330887 -0.000208825 -0.000386306 -0.000738306 -0.000977097 -0.000890113 -0.000539469 -0.000237302 -0.000258105 -0.00056203 -0.000811051 -0.000706414 -0.000323504 -6.49977e-05 -0.000190934 -0.000500378 -0.000552389 -0.000236869 3.94817e-05 -3.61835e-05 -0.000239031 -0.000232483 -4.81525e-05 4.22307e-05 -3.42125e-05 -8.11075e-05 -2.31291e-05 1.37258e-05 -5.34656e-06 -1.33335e-05 -2.32242e-06 1.77077e-06 -1.93987e-07 -8.05913e-07 0 0 
0 0 -6.77697e-07 -3.17829e-07 1.31534e-06 -1.78595e-06 -1.2902e-05 -5.6767e-06 1.44627e-05 -3.06422e-05 -9.23326e-05 -1.18848e-05 5.76196e-05 -0.000131745 -0.000320027 -0.000170791 7.78949e-05 -5.39754e-05 -0.000553843 -0.000767525 -0.00036004 3.28915e-05 -0.000221737 -0.00086531 -0.00118401 -0.000858444 -0.000319667 -0.000232429 -0.00072165 -0.00131421 -0.00146412 -0.00105893 -0.000512529 -0.000337085 -0.000684236 -0.00126115 -0.00159079 -0.00140421 -0.000825934 -0.000236512 1.03744e-05 -0.000168677 -0.000555914 -0.000797986 -0.000628218 -1.6141e-05 0.000838932 0.00163758 0.00213754 0.00226959 0.00214014 0.00195634 0.00191978 0.00213187 0.00256291 0.00307312 0.00347469 0.00360435 0.00337617 0.00279941 0.00196737 0.00102394 0.00011706 -0.000634111 -0.00116255 -0.00145682 -0.00154766 -0.00149316 -0.00136506 -0.00123149 -0.00113599 -0.00108705 -0.00106599 -0.00104512 -0.00101324 -0.000979779 -0.000962493 -0.000973663 -0.00100957 -0.0010513 -0.0010751 -0.0010616 -0.00100357 -0.000902137 -0.000765457 -0.000605478 -0.000433577 -0.000259773 -9.20978e-05 6.33086e-05 0.000203671 0.000326624 0.000432626 0.000522026 0.000595374 0.000653638 0.000698833 0.000732133 0.000755012 0.000768522 0.000773487 0.000768706 0.00075525 0.000732274 0.000698885 0.000653712 0.000595435 0.000522139 0.000433316 0.000328587 0.00020699 6.57635e-05 -9.9358e-05 -0.000298778 -0.00054246 -0.000828452 -0.00112197 -0.00134055 -0.00137123 -0.00113853 -0.000691505 -0.000235025 -4.06879e-05 -0.000251844 -0.000744003 -0.00119505 -0.00134922 -0.00123258 -0.00108645 -0.00109524 -0.00122446 -0.00133743 -0.00140325 -0.00148782 -0.00157486 -0.00151964 -0.00120626 -0.000652084 8.07242e-05 0.000960952 0.00191267 0.00275869 0.00332132 0.00353562 0.00341751 0.00302542 0.00250614 0.00207413 0.0018766 0.00191862 0.00209895 0.00223681 0.0021182 0.00161951 0.000821477 -2.26654e-05 -0.000626121 -0.000796965 -0.00055288 -0.000157059 2.8546e-05 -0.000217765 -0.000809016 -0.00138667 -0.00157026 -0.00124081 -0.000668296 -0.000324037 -0.000495713 -0.00103482 -0.0014356 -0.00128834 -0.00070145 -0.000214591 -0.000301524 -0.000834215 -0.00115748 -0.000844362 -0.000209417 4.15553e-05 -0.000347759 -0.000751759 -0.000541374 -4.79377e-05 8.15317e-05 -0.000165396 -0.000313689 -0.000127907 5.87689e-05 -1.0696e-05 -9.06145e-05 -2.96517e-05 1.45965e-05 -5.80279e-06 -1.25582e-05 -9.76965e-07 4.84389e-07 -2.2194e-07 0 0 
0 0 -3.6399e-07 3.44046e-07 -3.55758e-07 -1.1113e-05 -7.14637e-06 1.35728e-05 -3.06422e-05 -9.55507e-05 5.1598e-06 6.25941e-05 -0.000219195 -0.000358718 -1.70901e-05 0.00013472 -0.000328801 -0.000862403 -0.000705509 9.68466e-06 9.76284e-05 -0.000817179 -0.00155561 -0.00125832 -0.00040929 -8.17129e-05 -0.000763093 -0.00175219 -0.00202551 -0.00140096 -0.000564469 -0.000376046 -0.00106103 -0.00200723 -0.00241877 -0.00198036 -0.00106061 -0.000390731 -0.000443688 -0.00112487 -0.00188803 -0.00213216 -0.00161111 -0.000540779 0.000572448 0.00125844 0.00135098 0.00103411 0.00071717 0.000796177 0.00145132 0.00258895 0.0038972 0.00499627 0.0055921 0.00556822 0.00500482 0.00411866 0.00317431 0.00238685 0.00187071 0.0016197 0.00153708 0.00148147 0.00131235 0.000930999 0.000306016 -0.000528697 -0.00148341 -0.00244933 -0.00331551 -0.00397864 -0.004343 -0.00434771 -0.00398668 -0.00332271 -0.00247549 -0.00158025 -0.0007467 -3.93379e-05 0.000518875 0.000936677 0.00123165 0.00142329 0.00152585 0.00155351 0.0015184 0.00143495 0.00131352 0.00116869 0.0010095 0.000847858 0.000690062 0.00054306 0.000409361 0.000293543 0.000197968 0.000123604 6.92707e-05 3.73458e-05 2.59593e-05 3.77543e-05 6.96095e-05 0.000123604 0.000197787 0.000293419 0.000409497 0.000544023 0.000692774 0.000852778 0.0010146 0.00116379 0.00127035 0.00129997 0.00122186 0.00104982 0.000864089 0.00080756 0.000996718 0.00138855 0.00169497 0.00149016 0.000501575 -0.0011079 -0.00277374 -0.00391908 -0.00437757 -0.00441445 -0.00432457 -0.00408735 -0.00349324 -0.00253129 -0.00146689 -0.000546117 0.000213894 0.0008537 0.00128926 0.0014427 0.00144675 0.00153255 0.00181444 0.00231582 0.00307334 0.00403095 0.00493832 0.00548871 0.00550407 0.00493084 0.00384444 0.00252884 0.00140119 0.000769038 0.000692504 0.00100831 0.0013428 0.00126326 0.000573465 -0.000536056 -0.00159056 -0.00210528 -0.00186349 -0.00109993 -0.000413658 -0.000357467 -0.0010326 -0.00196186 -0.00240121 -0.00197874 -0.00102165 -0.00033581 -0.000532739 -0.00137614 -0.00199753 -0.00171469 -0.000734135 -6.22233e-05 -0.000387313 -0.00122756 -0.00152223 -0.000794004 0.00010843 1.97277e-05 -0.000688572 -0.000844778 -0.000318589 0.000138491 -1.27453e-05 -0.000351512 -0.000214345 6.37063e-05 6.49924e-06 -9.3675e-05 -3.01729e-05 1.36891e-05 -6.17453e-06 -1.1523e-05 -2.98527e-06 7.54493e-07 0 0 
0 0 4.12016e-07 -2.04484e-06 -8.74356e-06 -8.13231e-06 1.06461e-05 -2.37922e-05 -9.23326e-05 5.1598e-06 6.22038e-05 -0.000275556 -0.000357414 0.000153281 7.72866e-05 -0.000734089 -0.00095574 -0.000294392 0.00028897 -0.000334041 -0.00172322 -0.00186382 -0.000588659 0.000166989 -0.000580734 -0.00206191 -0.00270433 -0.00181328 -0.000527232 -0.000299699 -0.00138139 -0.00282193 -0.00330275 -0.00245052 -0.0011169 -0.000451924 -0.00102657 -0.00237722 -0.00343604 -0.0034231 -0.00230919 -0.000799651 0.000207915 0.000238586 -0.000531098 -0.00141734 -0.00167379 -0.000909798 0.000760739 0.00279115 0.00453398 0.00553279 0.00568158 0.00523258 0.0046185 0.00426083 0.00439677 0.00501395 0.00587754 0.00663778 0.00695624 0.00660111 0.00552595 0.00384519 0.00179485 -0.000333602 -0.00227067 -0.00380667 -0.00481556 -0.00526056 -0.00520722 -0.00477727 -0.00408887 -0.00323244 -0.00226713 -0.00126561 -0.000338611 0.00038948 0.000824791 0.000929826 0.000740599 0.000340451 -0.000167544 -0.000700676 -0.00120145 -0.00163381 -0.00198458 -0.00225127 -0.00243934 -0.00255669 -0.00261586 -0.00262579 -0.00260296 -0.00255689 -0.00249695 -0.00243067 -0.00236891 -0.00231443 -0.00227161 -0.002245 -0.00223763 -0.00224473 -0.00227152 -0.0023147 -0.00236932 -0.00243082 -0.00249598 -0.00255367 -0.00259649 -0.00261722 -0.00261567 -0.00259852 -0.00259329 -0.00261905 -0.00265263 -0.0025749 -0.00216928 -0.00122341 0.00026068 0.00190294 0.00301396 0.00298604 0.00178904 7.51486e-05 -0.0013048 -0.00202212 -0.00246212 -0.00317094 -0.00418817 -0.00504803 -0.00537549 -0.00523974 -0.0048006 -0.00392407 -0.00240282 -0.000371058 0.00176406 0.00372806 0.00539054 0.00652038 0.00687124 0.00649768 0.00574348 0.00492127 0.00429194 0.0041321 0.00452001 0.00516284 0.00559967 0.00545842 0.00449584 0.00276064 0.00072337 -0.000921715 -0.00166527 -0.00141657 -0.000525751 0.000269655 0.000243879 -0.000770687 -0.00227267 -0.00337506 -0.00338961 -0.00234419 -0.00100618 -0.000427043 -0.00107478 -0.00239861 -0.00325724 -0.00278596 -0.00134666 -0.000254741 -0.000473109 -0.00176114 -0.00264544 -0.00201526 -0.000554445 0.000183966 -0.000563426 -0.00182512 -0.00168809 -0.000315881 0.000298236 -0.000280514 -0.000936345 -0.000718291 8.29596e-05 0.00015618 -0.0003503 -0.000269743 6.37012e-05 5.98417e-06 -9.08459e-05 -2.23357e-05 1.06688e-05 -1.02909e-05 -7.62567e-06 -1.375e-06 0 0 
0 0 -7.06328e-07 -6.12072e-06 -1.06452e-05 6.417e-06 -1.2854e-05 -8.27079e-05 -1.18848e-05 6.25941e-05 -0.000275556 -0.000351277 0.00026198 -3.73431e-05 -0.00111666 -0.000751836 0.000295151 7.13808e-05 -0.00124965 -0.00227826 -0.00132262 0.000453133 -3.05404e-05 -0.0022015 -0.00332183 -0.00241098 -0.000526786 2.36781e-05 -0.00160209 -0.00362073 -0.0041557 -0.00283237 -0.000948012 -0.000425738 -0.00174839 -0.00380466 -0.00498976 -0.00435701 -0.00247286 -0.000747938 -0.000348456 -0.00148565 -0.00324969 -0.00437377 -0.0040056 -0.00215431 0.000355743 0.00248872 0.0035143 0.00335433 0.0025718 0.00197843 0.00227303 0.00370037 0.00600409 0.00857515 0.0106831 0.0117702 0.0115802 0.0102226 0.00806881 0.00562019 0.00335039 0.0015776 0.000447346 -0.000100018 -0.000251159 -0.000254037 -0.000333962 -0.000640395 -0.00125137 -0.00216802 -0.0033203 -0.00453326 -0.00557941 -0.00625052 -0.00645177 -0.00622108 -0.00570273 -0.00505679 -0.0043791 -0.00371605 -0.00306036 -0.00239607 -0.00170862 -0.00101439 -0.000328761 0.000315197 0.000906955 0.00142332 0.0018725 0.00224683 0.00255691 0.00279941 0.00298793 0.00312869 0.00323263 0.00330545 0.00335507 0.00338241 0.00339125 0.00338176 0.00335423 0.00330478 0.00323233 0.00312941 0.00299113 0.00280685 0.00256895 0.00225434 0.00183879 0.00126333 0.000483321 -0.000514438 -0.00158672 -0.00243956 -0.00268959 -0.0021655 -0.00117591 -0.000556053 -0.0011776 -0.00322768 -0.0058367 -0.00762954 -0.00780051 -0.00674359 -0.00548776 -0.00456484 -0.00368267 -0.00248264 -0.00125772 -0.000564644 -0.000452563 -0.000463212 -0.000327207 -0.000110916 0.000315897 0.0013766 0.00322629 0.00552475 0.00788989 0.010023 0.0114484 0.0116413 0.0105068 0.0084279 0.00591306 0.00359599 0.00216431 0.00192188 0.00253611 0.00330251 0.00349229 0.00250241 0.000356461 -0.00215017 -0.00396467 -0.00432721 -0.00321824 -0.00143375 -0.000277981 -0.000690263 -0.00243721 -0.00433003 -0.00495406 -0.00375146 -0.00169124 -0.000377241 -0.00089919 -0.00277507 -0.00409116 -0.00356006 -0.00155508 5.97765e-05 -0.000491882 -0.00235636 -0.00325741 -0.00215135 -8.89715e-06 0.000466676 -0.00128998 -0.00223507 -0.00121953 8.40395e-05 0.000303433 -0.000733759 -0.00109603 -3.02946e-05 0.000264174 -0.000343569 -0.000270118 6.33803e-05 -1.00194e-05 -8.08076e-05 -1.43567e-05 6.44048e-06 -4.57398e-06 -5.64425e-06 0 0 
0 0 -3.81843e-06 -5.45509e-06 6.00185e-07 -5.06427e-06 -6.53102e-05 -3.56656e-05 5.76196e-05 -0.000219195 -0.000357414 0.00026198 -9.5789e-05 -0.00134113 -0.000422436 0.000795811 -0.000712127 -0.00221828 -0.00180284 -0.000201072 0.000746627 -0.00147013 -0.00409624 -0.00313096 -0.00057522 0.000346627 -0.00136545 -0.00431129 -0.00510821 -0.00305717 -0.00069973 -0.000282033 -0.0024427 -0.00532426 -0.00630195 -0.00481864 -0.00215627 -0.000527318 -0.00130649 -0.00378971 -0.00622379 -0.00687617 -0.00523236 -0.00232654 0.000250633 0.00119627 0.000321458 -0.00144444 -0.00276229 -0.00244908 -0.000196978 0.00345361 0.00742655 0.010569 0.0121883 0.0121707 0.0109936 0.00940293 0.00812565 0.00763448 0.00798451 0.00891871 0.00990952 0.0104226 0.0100385 0.00855444 0.00602639 0.00270725 -0.00100345 -0.0046791 -0.00789019 -0.0103389 -0.0118777 -0.0124583 -0.0120814 -0.0107668 -0.00862804 -0.00591155 -0.00301176 -0.000313101 0.00188277 0.00343521 0.00434304 0.00471895 0.00470092 0.00440593 0.00393088 0.00334523 0.00270104 0.00203568 0.00138067 0.000756527 0.000192719 -0.000312118 -0.000751175 -0.00112732 -0.00142533 -0.00165527 -0.00181929 -0.00191793 -0.00194687 -0.00192007 -0.00182166 -0.00165629 -0.0014246 -0.00112418 -0.000743516 -0.000297583 0.000208386 0.000737255 0.0012311 0.0015845 0.00173945 0.00176894 0.00196798 0.0027774 0.00447323 0.0067236 0.00841516 0.00811103 0.00508355 0.00013025 -0.00480786 -0.00810524 -0.00970901 -0.0107396 -0.0119705 -0.0128631 -0.0124017 -0.0104447 -0.00773633 -0.00474598 -0.00129757 0.00254842 0.00603681 0.00843843 0.00976293 0.0102235 0.00980239 0.00871434 0.00770328 0.00744057 0.00797476 0.00917916 0.0107775 0.0120471 0.0120649 0.0104161 0.00733842 0.00341349 -0.000261166 -0.00248986 -0.0027432 -0.00143905 0.000321305 0.00124616 0.000312388 -0.00228889 -0.00516103 -0.00677414 -0.00615181 -0.0037443 -0.0012572 -0.0004716 -0.00209426 -0.00475464 -0.00623527 -0.00523945 -0.00234515 -0.000199491 -0.000638268 -0.00300466 -0.00504638 -0.00422959 -0.00131558 0.000375062 -0.0005358 -0.00306246 -0.00402048 -0.0014279 0.000761308 -0.000178145 -0.00176431 -0.00217678 -0.000688522 0.000800071 -0.000408305 -0.00131811 -8.71744e-05 0.000264221 -0.000350692 -0.000213926 5.9535e-05 -3.58309e-05 -6.53536e-05 -5.43898e-07 3.31701e-07 -5.03549e-06 0 0 
0 0 -4.72451e-06 -1.37961e-06 2.17985e-06 -4.58034e-05 -5.4133e-05 4.12149e-05 -0.000131745 -0.000358718 0.000153281 -3.73431e-05 -0.00134113 -0.000264696 0.0010527 -0.00162161 -0.00280619 -0.000311438 0.000611047 -0.000616147 -0.00327024 -0.00454794 -0.00116866 0.00127475 -0.00112749 -0.00454055 -0.00585496 -0.00369001 -0.000176984 -9.46121e-06 -0.00316506 -0.00652149 -0.00740635 -0.00477899 -0.0014164 -0.000478197 -0.00260726 -0.00641188 -0.00882913 -0.00813473 -0.00504128 -0.00157727 -0.00016138 -0.00150011 -0.00451064 -0.0072089 -0.00763844 -0.00531634 -0.00104674 0.00353312 0.00675823 0.00793175 0.00725494 0.00586022 0.00504705 0.00573293 0.0082252 0.0119769 0.0160367 0.0192543 0.0207635 0.0201517 0.0174914 0.0133405 0.00840723 0.00352268 -0.000685694 -0.0037981 -0.00570625 -0.00652592 -0.00649968 -0.00594799 -0.0052108 -0.00460297 -0.00425594 -0.00413785 -0.0040406 -0.00383752 -0.00351925 -0.00323102 -0.0031939 -0.00349166 -0.00409709 -0.00487513 -0.00566348 -0.00630118 -0.006744 -0.00694883 -0.00696041 -0.00678272 -0.00649962 -0.0061269 -0.00572278 -0.00529376 -0.00488307 -0.00450287 -0.00418298 -0.00392246 -0.00373123 -0.00361886 -0.0035798 -0.00362171 -0.00373417 -0.00392296 -0.00418018 -0.00449513 -0.00486708 -0.00527097 -0.00572362 -0.00624953 -0.00694095 -0.00781963 -0.00880752 -0.00947361 -0.00918622 -0.00730816 -0.0039022 -6.95041e-05 0.00226185 0.0016585 -0.00153413 -0.00511303 -0.00673585 -0.00591077 -0.00432129 -0.00384187 -0.00458782 -0.00536758 -0.00553611 -0.00574249 -0.00643792 -0.00687442 -0.00600593 -0.00379486 -0.000743415 0.00318921 0.00809232 0.0132046 0.0172875 0.0197859 0.0204709 0.0190747 0.0157763 0.0116726 0.0080444 0.00559647 0.00484912 0.00572226 0.00720924 0.00786192 0.00668914 0.00354843 -0.00102821 -0.0053262 -0.00758446 -0.00712714 -0.00445924 -0.00141155 -2.01566e-05 -0.00148361 -0.00497704 -0.0080485 -0.00875025 -0.00635385 -0.0025343 -0.000378307 -0.00128541 -0.00464551 -0.00731754 -0.0064595 -0.00308543 0.000101018 -5.53904e-05 -0.00358664 -0.00573701 -0.00443901 -0.00107174 0.00129661 -0.00112317 -0.00446343 -0.0032025 -0.000582647 0.000626437 -0.000287977 -0.00275663 -0.00158722 0.00105453 -0.000251182 -0.00131768 -3.05902e-05 0.000156404 -0.000350573 -0.000128762 4.02314e-05 -5.02764e-05 -4.3394e-05 -1.01896e-05 3.373e-07 0 0 