<?xml version="1.0"?>
<VTKFile type="ImageData" version="0.1" byte_order="LittleEndian">
<ImageData WholeExtent="0 199 0 199 0 0" Origin="0 0 0" Spacing="15 15 0">
<Piece Extent="0 199 0 199 0 0">
<PointData Scalars="Amplitude">
<DataArray type="Float32" Name="Amplitude" format="ascii">
0 0 0 0 0 0 0 0 0 0 0 0 0 0 0 0 0 0 0 0 0 0 0 0 0 0 0 0 0 0 0 0 0 0 0 0 0 0 0 0 0 0 0 0 0 0 0 0 0 0 0 0 0 0 0 0 0 0 0 0 0 0 0 0 0 0 0 0 0 0 0 0 0 0 0 0 0 0 0 0 0 0 0 0 0 0 0 0 0 0 0 0 0 0 0 0 0 0 0 0 0 0 0 0 0 0 0 0 0 0 0 0 0 0 0 0 0 0 0 0 0 0 0 0 0 0 0 0 0 0 0 0 0 0 0 0 0 0 0 0 0 0 0 0 0 0 0 0 0 0 0 0 0 0 0 0 0 0 0 0 0 0 0 0 0 0 0 0 0 0 0 0 0 0 0 0 0 0 0 0 0 0 0 0 0 0 0 0 0 0 0 0 0 0 0 0 0 0 0 0 
0 0 0 0 0 0 0 0 0 0 0 0 0 0 0 0 0 0 0 0 0 0 0 0 0 0 0 0 0 0 0 0 0 0 0 0 0 0 0 0 0 0 0 0 0 0 0 0 0 0 0 0 0 0 0 0 0 0 0 0 0 0 0 0 0 0 0 0 0 0 0 0 0 0 0 0 0 0 0 0 0 0 0 0 0 0 0 0 0 0 0 0 0 0 0 0 0 0 0 0 0 0 0 0 0 0 0 0 0 0 0 0 0 0 0 0 0 0 0 0 0 0 0 0 0 0 0 0 0 0 0 0 0 0 0 0 0 0 0 0 0 0 0 0 0 0 0 0 0 0 0 0 0 0 0 0 0 0 0 0 0 0 0 0 0 0 0 0 0 0 0 0 0 0 0 0 0 0 0 0 0 0 0 0 0 0 0 0 0 0 0 0 0 0 0 0 0 0 0 0 
0 0 0 0 0 0 0 0 0 0 0 0 0 0 0 0 0 0 0 0 0 0 0 0 0 0 0 0 0 0 0 0 0 0 0 0 0 0 0 0 0 0 0 0 0 0 0 0 0 0 0 0 0 0 0 0 0 0 0 0 0 0 0 0 0 0 0 0 0 0 0 0 0 0 0 0 -0 0 1.35716e-45 2.11717e-43 1.06266e-42 3.08483e-42 5.83579e-42 4.54377e-42 -1.50102e-41 -8.05244e-41 -2.30051e-40 -4.93037e-40 -8.55042e-40 -1.21517e-39 -1.36008e-39 -9.79962e-40 2.62027e-40 2.62175e-39 6.16411e-39 1.06946e-38 1.57625e-38 2.07357e-38 2.49247e-38 2.77179e-38 2.86982e-38 2.77179e-38 2.49247e-38 2.07357e-38 1.57625e-38 1.06946e-38 6.16411e-39 2.62175e-39 2.62027e-40 -9.79962e-40 -1.36008e-39 -1.21517e-39 -8.55042e-40 -4.93037e-40 -2.30051e-40 -8.05244e-41 -1.50102e-41 4.54377e-42 5.83579e-42 3.08483e-42 1.06266e-42 2.11717e-43 1.35716e-45 0 -0 0 0 0 0 0 0 0 0 0 0 0 0 0 0 0 0 0 0 0 0 0 0 0 0 0 0 0 0 0 0 0 0 0 0 0 0 0 0 0 0 0 0 0 0 0 0 0 0 0 0 0 0 0 0 0 0 0 0 0 0 0 0 0 0 0 0 0 0 0 0 0 0 0 0 0 
0 0 0 0 0 0 0 0 0 0 0 0 0 0 0 0 0 0 0 0 0 0 0 0 0 0 0 0 0 0 0 0 0 0 0 0 0 0 0 0 0 0 0 0 0 0 0 0 0 0 0 0 0 0 0 0 0 0 0 0 0 0 0 0 0 0 0 0 0 0 0 0 0 0 0 -1.96216e-46 1.13002e-45 1.4176e-43 1.29916e-42 5.51842e-42 1.41966e-41 1.91795e-41 -1.76674e-41 -1.91365e-40 -6.57598e-40 -1.55684e-39 -2.80373e-39 -3.74944e-39 -2.84442e-39 2.46751e-39 1.54051e-38 3.90144e-38 7.50745e-38 1.23182e-37 1.80436e-37 2.419e-37 3.01653e-37 3.53993e-37 3.9435e-37 4.19657e-37 4.28262e-37 4.19657e-37 3.9435e-37 3.53993e-37 3.01653e-37 2.419e-37 1.80436e-37 1.23182e-37 7.50745e-38 3.90144e-38 1.54051e-38 2.46751e-39 -2.84442e-39 -3.74944e-39 -2.80373e-39 -1.55684e-39 -6.57598e-40 -1.91365e-40 -1.76674e-41 1.91795e-41 1.41966e-41 5.51842e-42 1.29916e-42 1.4176e-43 1.13002e-45 -1.96216e-46 0 0 0 0 0 0 0 0 0 0 0 0 0 0 0 0 0 0 0 0 0 0 0 0 0 0 0 0 0 0 0 0 0 0 0 0 0 0 0 0 0 0 0 0 0 0 0 0 0 0 0 0 0 0 0 0 0 0 0 0 0 0 0 0 0 0 0 0 0 0 0 0 0 0 
0 0 0 0 0 0 0 0 0 0 0 0 0 0 0 0 0 0 0 0 0 0 0 0 0 0 0 0 0 0 0 0 0 0 0 0 0 0 0 0 0 0 0 0 0 0 0 0 0 0 0 0 0 0 0 0 0 0 0 0 0 0 0 0 0 0 0 0 0 0 0 0 0 -0 -0 -5.45762e-45 3.00169e-44 1.24161e-42 7.86034e-42 2.57654e-41 4.80475e-41 1.05332e-41 -2.83905e-40 -1.2143e-39 -3.20871e-39 -6.21692e-39 -8.69118e-39 -6.33475e-39 8.6699e-39 4.70514e-38 1.19964e-37 2.35094e-37 3.92846e-37 5.84451e-37 7.93189e-37 9.98471e-37 1.18113e-36 1.32766e-36 1.43177e-36 1.49292e-36 1.51295e-36 1.49292e-36 1.43177e-36 1.32766e-36 1.18113e-36 9.98471e-37 7.93189e-37 5.84451e-37 3.92846e-37 2.35094e-37 1.19964e-37 4.70514e-38 8.6699e-39 -6.33475e-39 -8.69118e-39 -6.21692e-39 -3.20871e-39 -1.2143e-39 -2.83905e-40 1.05332e-41 4.80475e-41 2.57654e-41 7.86034e-42 1.24161e-42 3.00169e-44 -5.45762e-45 -0 -0 0 0 0 0 0 0 0 0 0 0 0 0 0 0 0 0 0 0 0 0 0 0 0 0 0 0 0 0 0 0 0 0 0 0 0 0 0 0 0 0 0 0 0 0 0 0 0 0 0 0 0 0 0 0 0 0 0 0 0 0 0 0 0 0 0 0 0 0 0 0 0 0 
0 0 0 0 0 0 0 0 0 0 0 0 0 0 0 0 0 0 0 0 0 0 0 0 0 0 0 0 0 0 0 0 0 0 0 0 0 0 0 0 0 0 0 0 0 0 0 0 0 0 0 0 0 0 0 0 0 0 0 0 0 0 0 0 0 0 0 0 0 0 0 -0 -0 -7.52287e-44 -1.69606e-43 6.2645e-43 6.78699e-42 2.64025e-41 5.24823e-41 -6.98532e-42 -4.61271e-40 -1.90458e-39 -4.7923e-39 -7.82571e-39 -4.70091e-39 1.99103e-38 9.21302e-38 2.43939e-37 4.98542e-37 8.48317e-37 1.23444e-36 1.54119e-36 1.61454e-36 1.30469e-36 5.19862e-37 -7.28784e-37 -2.30939e-36 -3.98748e-36 -5.4756e-36 -6.49989e-36 -6.86488e-36 -6.49989e-36 -5.4756e-36 -3.98748e-36 -2.30939e-36 -7.28784e-37 5.19862e-37 1.30469e-36 1.61454e-36 1.54119e-36 1.23444e-36 8.48317e-37 4.98542e-37 2.43939e-37 9.21302e-38 1.99103e-38 -4.70091e-39 -7.82571e-39 -4.7923e-39 -1.90458e-39 -4.61271e-40 -6.98532e-42 5.24823e-41 2.64025e-41 6.78699e-42 6.2645e-43 -1.69606e-43 -7.52287e-44 -0 -0 0 0 0 0 0 0 0 0 0 0 0 0 0 0 0 0 0 0 0 0 0 0 0 0 0 0 0 0 0 0 0 0 0 0 0 0 0 0 0 0 0 0 0 0 0 0 0 0 0 0 0 0 0 0 0 0 0 0 0 0 0 0 0 0 0 0 0 0 0 0 
0 0 0 0 0 0 0 0 0 0 0 0 0 0 0 0 0 0 0 0 0 0 0 0 0 0 0 0 0 0 0 0 0 0 0 0 0 0 0 0 0 0 0 0 0 0 0 0 0 0 0 0 0 0 0 0 0 0 0 0 0 0 0 0 0 0 0 0 0 0 -0 -7.54064e-44 -4.68891e-43 -3.22191e-43 4.10896e-42 2.30579e-41 5.79052e-41 1.49798e-41 -4.94769e-40 -2.28757e-39 -5.81692e-39 -7.72781e-39 6.6949e-39 7.28286e-38 2.47181e-37 5.80246e-37 1.04525e-36 1.42831e-36 1.22295e-36 -3.98398e-37 -4.47117e-36 -1.19751e-35 -2.34939e-35 -3.89292e-35 -5.7396e-35 -7.73495e-35 -9.68958e-35 -1.14158e-34 -1.27574e-34 -1.36039e-34 -1.38928e-34 -1.36039e-34 -1.27574e-34 -1.14158e-34 -9.68958e-35 -7.73495e-35 -5.7396e-35 -3.89292e-35 -2.34939e-35 -1.19751e-35 -4.47117e-36 -3.98398e-37 1.22295e-36 1.42831e-36 1.04525e-36 5.80246e-37 2.47181e-37 7.28286e-38 6.6949e-39 -7.72781e-39 -5.81692e-39 -2.28757e-39 -4.94769e-40 1.49798e-41 5.79052e-41 2.30579e-41 4.10896e-42 -3.22191e-43 -4.68891e-43 -7.54064e-44 -0 0 0 0 0 0 0 0 0 0 0 0 0 0 0 0 0 0 0 0 0 0 0 0 0 0 0 0 0 0 0 0 0 0 0 0 0 0 0 0 0 0 0 0 0 0 0 0 0 0 0 0 0 0 0 0 0 0 0 0 0 0 0 0 0 0 0 0 0 0 
0 0 0 0 0 0 0 0 0 0 0 0 0 0 0 0 0 0 0 0 0 0 0 0 0 0 0 0 0 0 0 0 0 0 0 0 0 0 0 0 0 0 0 0 0 0 0 0 0 0 0 0 0 0 0 0 0 0 0 0 0 0 0 0 0 0 0 0 0 -1.3741e-45 -3.17417e-43 -9.35761e-43 9.38509e-43 1.56496e-41 5.64301e-41 6.1168e-41 -3.60721e-40 -2.21748e-39 -6.24066e-39 -7.57841e-39 1.75797e-38 1.29077e-37 4.15666e-37 9.03472e-37 1.3133e-36 6.69966e-37 -3.07275e-36 -1.30579e-35 -3.28534e-35 -6.50025e-35 -1.09211e-34 -1.61022e-34 -2.11895e-34 -2.51088e-34 -2.6895e-34 -2.6044e-34 -2.27452e-34 -1.78941e-34 -1.28639e-34 -9.10663e-35 -7.71863e-35 -9.10663e-35 -1.28639e-34 -1.78941e-34 -2.27452e-34 -2.6044e-34 -2.6895e-34 -2.51088e-34 -2.11895e-34 -1.61022e-34 -1.09211e-34 -6.50025e-35 -3.28534e-35 -1.30579e-35 -3.07275e-36 6.69966e-37 1.3133e-36 9.03472e-37 4.15666e-37 1.29077e-37 1.75797e-38 -7.57841e-39 -6.24066e-39 -2.21748e-39 -3.60721e-40 6.1168e-41 5.64301e-41 1.56496e-41 9.38509e-43 -9.35761e-43 -3.17417e-43 -1.3741e-45 0 0 0 0 0 0 0 0 0 0 0 0 0 0 0 0 0 0 0 0 0 0 0 0 0 0 0 0 0 0 0 0 0 0 0 0 0 0 0 0 0 0 0 0 0 0 0 0 0 0 0 0 0 0 0 0 0 0 0 0 0 0 0 0 0 0 0 0 
0 0 0 0 0 0 0 0 0 0 0 0 0 0 0 0 0 0 0 0 0 0 0 0 0 0 0 0 0 0 0 0 0 0 0 0 0 0 0 0 0 0 0 0 0 0 0 0 0 0 0 0 0 0 0 0 0 0 0 0 0 0 0 0 0 0 0 -0 -7.57356e-44 -6.4031e-43 -9.69415e-43 6.92361e-42 4.3559e-41 9.57463e-41 -1.33034e-40 -1.71536e-39 -6.04564e-39 -8.88808e-39 1.84516e-38 1.57091e-37 5.2538e-37 1.07874e-36 1.03e-36 -2.13593e-36 -1.35306e-35 -4.03184e-35 -8.81271e-35 -1.53721e-34 -2.15655e-34 -2.27421e-34 -1.1867e-34 1.92079e-34 7.7484e-34 1.66266e-33 2.83272e-33 4.20151e-33 5.63616e-33 6.97776e-33 8.06929e-33 8.78089e-33 9.02785e-33 8.78089e-33 8.06929e-33 6.97776e-33 5.63616e-33 4.20151e-33 2.83272e-33 1.66266e-33 7.7484e-34 1.92079e-34 -1.1867e-34 -2.27421e-34 -2.15655e-34 -1.53721e-34 -8.81271e-35 -4.03184e-35 -1.35306e-35 -2.13593e-36 1.03e-36 1.07874e-36 5.2538e-37 1.57091e-37 1.84516e-38 -8.88808e-39 -6.04564e-39 -1.71536e-39 -1.33034e-40 9.57463e-41 4.3559e-41 6.92361e-42 -9.69415e-43 -6.4031e-43 -7.57356e-44 -0 0 0 0 0 0 0 0 0 0 0 0 0 0 0 0 0 0 0 0 0 0 0 0 0 0 0 0 0 0 0 0 0 0 0 0 0 0 0 0 0 0 0 0 0 0 0 0 0 0 0 0 0 0 0 0 0 0 0 0 0 0 0 0 0 0 0 
0 0 0 0 0 0 0 0 0 0 0 0 0 0 0 0 0 0 0 0 0 0 0 0 0 0 0 0 0 0 0 0 0 0 0 0 0 0 0 0 0 0 0 0 0 0 0 0 0 0 0 0 0 0 0 0 0 0 0 0 0 0 0 0 0 0 -0 -3.27004e-43 -1.19073e-42 7.47831e-43 2.39251e-41 9.37231e-41 6.66563e-41 -9.57476e-40 -5.00043e-39 -1.06302e-38 8.06913e-39 1.42915e-37 5.46877e-37 1.1374e-36 5.80846e-37 -5.59336e-36 -2.64721e-35 -7.28927e-35 -1.44189e-34 -2.00638e-34 -1.2686e-34 2.95039e-34 1.37525e-33 3.44924e-33 6.76074e-33 1.13349e-32 1.69017e-32 2.29192e-32 2.87034e-32 3.3623e-32 3.72823e-32 3.96134e-32 4.08443e-32 4.13543e-32 4.14799e-32 4.13543e-32 4.08443e-32 3.96134e-32 3.72823e-32 3.3623e-32 2.87034e-32 2.29192e-32 1.69017e-32 1.13349e-32 6.76074e-33 3.44924e-33 1.37525e-33 2.95039e-34 -1.2686e-34 -2.00638e-34 -1.44189e-34 -7.28927e-35 -2.64721e-35 -5.59336e-36 5.80846e-37 1.1374e-36 5.46877e-37 1.42915e-37 8.06913e-39 -1.06302e-38 -5.00043e-39 -9.57476e-40 6.66563e-41 9.37231e-41 2.39251e-41 7.47831e-43 -1.19073e-42 -3.27004e-43 -0 0 0 0 0 0 0 0 0 0 0 0 0 0 0 0 0 0 0 0 0 0 0 0 0 0 0 0 0 0 0 0 0 0 0 0 0 0 0 0 0 0 0 0 0 0 0 0 0 0 0 0 0 0 0 0 0 0 0 0 0 0 0 0 0 0 
0 0 0 0 0 0 0 0 0 0 0 0 0 0 0 0 0 0 0 0 0 0 0 0 0 0 0 0 0 0 0 0 0 0 0 0 0 0 0 0 0 0 0 0 0 0 0 0 0 0 0 0 0 0 0 0 0 0 0 0 0 0 0 0 -0 -6.22059e-44 -7.67206e-43 -1.87171e-42 6.99056e-42 6.08498e-41 1.51583e-40 -2.52459e-40 -3.20651e-39 -1.05506e-38 -6.21424e-39 9.49232e-38 4.81464e-37 1.15176e-36 5.66418e-37 -7.28006e-36 -3.52289e-35 -9.59439e-35 -1.68928e-34 -1.27349e-34 3.62209e-34 1.90062e-33 5.26309e-33 1.10509e-32 1.91014e-32 2.78546e-32 3.40212e-32 3.28833e-32 1.93412e-32 -1.05246e-32 -5.78848e-32 -1.20167e-31 -1.91038e-31 -2.61407e-31 -3.21171e-31 -3.6124e-31 -3.75341e-31 -3.6124e-31 -3.21171e-31 -2.61407e-31 -1.91038e-31 -1.20167e-31 -5.78848e-32 -1.05246e-32 1.93412e-32 3.28833e-32 3.40212e-32 2.78546e-32 1.91014e-32 1.10509e-32 5.26309e-33 1.90062e-33 3.62209e-34 -1.27349e-34 -1.68928e-34 -9.59439e-35 -3.52289e-35 -7.28006e-36 5.66418e-37 1.15176e-36 4.81464e-37 9.49232e-38 -6.21424e-39 -1.05506e-38 -3.20651e-39 -2.52459e-40 1.51583e-40 6.08498e-41 6.99056e-42 -1.87171e-42 -7.67206e-43 -6.22059e-44 -0 0 0 0 0 0 0 0 0 0 0 0 0 0 0 0 0 0 0 0 0 0 0 0 0 0 0 0 0 0 0 0 0 0 0 0 0 0 0 0 0 0 0 0 0 0 0 0 0 0 0 0 0 0 0 0 0 0 0 0 0 0 0 0 
0 0 0 0 0 0 0 0 0 0 0 0 0 0 0 0 0 0 0 0 0 0 0 0 0 0 0 0 0 0 0 0 0 0 0 0 0 0 0 0 0 0 0 0 0 0 0 0 0 0 0 0 0 0 0 0 0 0 0 0 0 0 0 -0 -2.32643e-43 -1.59111e-42 -1.4014e-42 2.37282e-41 1.26196e-40 1.45527e-40 -1.33888e-39 -7.855e-39 -1.52335e-38 3.64678e-38 3.44418e-37 1.08294e-36 1.05678e-36 -6.07453e-36 -3.59032e-35 -1.03498e-34 -1.65905e-34 2.061e-35 1.10395e-33 4.21117e-33 1.05007e-32 1.97571e-32 2.79626e-32 2.45773e-32 -8.91012e-33 -9.74261e-32 -2.6696e-31 -5.36474e-31 -9.09917e-31 -1.37175e-30 -1.88824e-30 -2.41429e-30 -2.90319e-30 -3.31547e-30 -3.62377e-30 -3.81294e-30 -3.87652e-30 -3.81294e-30 -3.62377e-30 -3.31547e-30 -2.90319e-30 -2.41429e-30 -1.88824e-30 -1.37175e-30 -9.09917e-31 -5.36474e-31 -2.6696e-31 -9.74261e-32 -8.91012e-33 2.45773e-32 2.79626e-32 1.97571e-32 1.05007e-32 4.21117e-33 1.10395e-33 2.061e-35 -1.65905e-34 -1.03498e-34 -3.59032e-35 -6.07453e-36 1.05678e-36 1.08294e-36 3.44418e-37 3.64678e-38 -1.52335e-38 -7.855e-39 -1.33888e-39 1.45527e-40 1.26196e-40 2.37282e-41 -1.4014e-42 -1.59111e-42 -2.32643e-43 -0 0 0 0 0 0 0 0 0 0 0 0 0 0 0 0 0 0 0 0 0 0 0 0 0 0 0 0 0 0 0 0 0 0 0 0 0 0 0 0 0 0 0 0 0 0 0 0 0 0 0 0 0 0 0 0 0 0 0 0 0 0 0 
0 0 0 0 0 0 0 0 0 0 0 0 0 0 0 0 0 0 0 0 0 0 0 0 0 0 0 0 0 0 0 0 0 0 0 0 0 0 0 0 0 0 0 0 0 0 0 0 0 0 0 0 0 0 0 0 0 0 0 0 0 0 -1.38704e-44 -6.25557e-43 -2.65619e-42 1.93354e-42 5.98218e-41 2.16461e-40 -1.15426e-40 -3.99211e-39 -1.51499e-38 -6.7077e-39 1.78565e-37 8.57195e-37 1.56089e-36 -2.8815e-36 -2.89158e-35 -9.75496e-35 -1.62463e-34 1.04274e-34 1.64837e-33 6.09405e-33 1.45002e-32 2.3413e-32 1.76891e-32 -3.76866e-32 -2.00867e-31 -5.4381e-31 -1.126e-30 -1.95578e-30 -2.95443e-30 -3.94338e-30 -4.67012e-30 -4.87276e-30 -4.36554e-30 -3.11473e-30 -1.27541e-30 8.275e-31 2.77159e-30 4.14131e-30 4.63461e-30 4.14131e-30 2.77159e-30 8.275e-31 -1.27541e-30 -3.11473e-30 -4.36554e-30 -4.87276e-30 -4.67012e-30 -3.94338e-30 -2.95443e-30 -1.95578e-30 -1.126e-30 -5.4381e-31 -2.00867e-31 -3.76866e-32 1.76891e-32 2.3413e-32 1.45002e-32 6.09405e-33 1.64837e-33 1.04274e-34 -1.62463e-34 -9.75496e-35 -2.89158e-35 -2.8815e-36 1.56089e-36 8.57195e-37 1.78565e-37 -6.7077e-39 -1.51499e-38 -3.99211e-39 -1.15426e-40 2.16461e-40 5.98218e-41 1.93354e-42 -2.65619e-42 -6.25557e-43 -1.38704e-44 0 0 0 0 0 0 0 0 0 0 0 0 0 0 0 0 0 0 0 0 0 0 0 0 0 0 0 0 0 0 0 0 0 0 0 0 0 0 0 0 0 0 0 0 0 0 0 0 0 0 0 0 0 0 0 0 0 0 0 0 0 
0 0 0 0 0 0 0 0 0 0 0 0 0 0 0 0 0 0 0 0 0 0 0 0 0 0 0 0 0 0 0 0 0 0 0 0 0 0 0 0 0 0 0 0 0 0 0 0 0 0 0 0 0 0 0 0 0 0 0 0 -0 -9.30726e-44 -1.3183e-42 -3.84793e-42 1.21439e-41 1.25861e-40 2.94284e-40 -1.01624e-39 -9.21382e-39 -2.24347e-38 4.49596e-38 5.137e-37 1.59536e-36 3.46738e-37 -1.75082e-35 -7.98237e-35 -1.65271e-34 4.90683e-35 1.66895e-33 6.71524e-33 1.59277e-32 2.09029e-32 -1.13671e-32 -1.55961e-31 -5.30649e-31 -1.25039e-30 -2.31364e-30 -3.43247e-30 -3.86963e-30 -2.383e-30 2.63338e-30 1.27931e-29 2.92291e-29 5.21358e-29 8.05149e-29 1.12224e-28 1.44314e-28 1.73533e-28 1.96847e-28 2.11853e-28 2.17027e-28 2.11853e-28 1.96847e-28 1.73533e-28 1.44314e-28 1.12224e-28 8.05149e-29 5.21358e-29 2.92291e-29 1.27931e-29 2.63338e-30 -2.383e-30 -3.86963e-30 -3.43247e-30 -2.31364e-30 -1.25039e-30 -5.30649e-31 -1.55961e-31 -1.13671e-32 2.09029e-32 1.59277e-32 6.71524e-33 1.66895e-33 4.90683e-35 -1.65271e-34 -7.98237e-35 -1.75082e-35 3.46738e-37 1.59536e-36 5.137e-37 4.49596e-38 -2.24347e-38 -9.21382e-39 -1.01624e-39 2.94284e-40 1.25861e-40 1.21439e-41 -3.84793e-42 -1.3183e-42 -9.30726e-44 -0 0 0 0 0 0 0 0 0 0 0 0 0 0 0 0 0 0 0 0 0 0 0 0 0 0 0 0 0 0 0 0 0 0 0 0 0 0 0 0 0 0 0 0 0 0 0 0 0 0 0 0 0 0 0 0 0 0 0 0 
0 0 0 0 0 0 0 0 0 0 0 0 0 0 0 0 0 0 0 0 0 0 0 0 0 0 0 0 0 0 0 0 0 0 0 0 0 0 0 0 0 0 0 0 0 0 0 0 0 0 0 0 0 0 0 0 0 0 0 -0 -2.67087e-43 -2.40517e-42 -4.21636e-42 3.51692e-41 2.29588e-40 2.55786e-40 -3.19029e-39 -1.76927e-38 -2.03734e-38 1.95178e-37 1.13182e-36 2.05207e-36 -6.33366e-36 -5.30338e-35 -1.54679e-34 -8.75315e-35 1.20033e-33 6.01477e-33 1.54005e-32 1.76393e-32 -3.73979e-32 -2.67819e-31 -8.4663e-31 -1.85817e-30 -2.93856e-30 -2.71497e-30 1.74398e-30 1.50654e-29 4.28873e-29 9.02297e-29 1.59314e-28 2.47696e-28 3.47708e-28 4.47771e-28 5.35399e-28 6.0086e-28 6.4011e-28 6.55801e-28 6.55909e-28 6.50463e-28 6.47609e-28 6.50463e-28 6.55909e-28 6.55801e-28 6.4011e-28 6.0086e-28 5.35399e-28 4.47771e-28 3.47708e-28 2.47696e-28 1.59314e-28 9.02297e-29 4.28873e-29 1.50654e-29 1.74398e-30 -2.71497e-30 -2.93856e-30 -1.85817e-30 -8.4663e-31 -2.67819e-31 -3.73979e-32 1.76393e-32 1.54005e-32 6.01477e-33 1.20033e-33 -8.75315e-35 -1.54679e-34 -5.30338e-35 -6.33366e-36 2.05207e-36 1.13182e-36 1.95178e-37 -2.03734e-38 -1.76927e-38 -3.19029e-39 2.55786e-40 2.29588e-40 3.51692e-41 -4.21636e-42 -2.40517e-42 -2.67087e-43 -0 0 0 0 0 0 0 0 0 0 0 0 0 0 0 0 0 0 0 0 0 0 0 0 0 0 0 0 0 0 0 0 0 0 0 0 0 0 0 0 0 0 0 0 0 0 0 0 0 0 0 0 0 0 0 0 0 0 0 
0 0 0 0 0 0 0 0 0 0 0 0 0 0 0 0 0 0 0 0 0 0 0 0 0 0 0 0 0 0 0 0 0 0 0 0 0 0 0 0 0 0 0 0 0 0 0 0 0 0 0 0 0 0 0 0 0 0 -1.39285e-45 -5.76638e-43 -3.88604e-42 -2.26059e-42 7.93073e-41 3.67302e-40 -1.10334e-40 -7.49555e-39 -2.86883e-38 1.20471e-38 5.24942e-37 2.01406e-36 7.19779e-37 -2.51661e-35 -1.17182e-34 -1.91805e-34 5.32891e-34 4.3826e-33 1.35861e-32 1.7779e-32 -4.01204e-32 -3.08731e-31 -9.99703e-31 -2.08824e-30 -2.50166e-30 1.21713e-30 1.61658e-29 5.28733e-29 1.21953e-28 2.26861e-28 3.54214e-28 4.6566e-28 4.9653e-28 3.65061e-28 -7.94391e-30 -6.73985e-28 -1.6345e-27 -2.82926e-27 -4.14023e-27 -5.41013e-27 -6.47093e-27 -7.17491e-27 -7.42143e-27 -7.17491e-27 -6.47093e-27 -5.41013e-27 -4.14023e-27 -2.82926e-27 -1.6345e-27 -6.73985e-28 -7.94391e-30 3.65061e-28 4.9653e-28 4.6566e-28 3.54214e-28 2.26861e-28 1.21953e-28 5.28733e-29 1.61658e-29 1.21713e-30 -2.50166e-30 -2.08824e-30 -9.99703e-31 -3.08731e-31 -4.01204e-32 1.7779e-32 1.35861e-32 4.3826e-33 5.32891e-34 -1.91805e-34 -1.17182e-34 -2.51661e-35 7.19779e-37 2.01406e-36 5.24942e-37 1.20471e-38 -2.86883e-38 -7.49555e-39 -1.10334e-40 3.67302e-40 7.93073e-41 -2.26059e-42 -3.88604e-42 -5.76638e-43 -1.39285e-45 0 0 0 0 0 0 0 0 0 0 0 0 0 0 0 0 0 0 0 0 0 0 0 0 0 0 0 0 0 0 0 0 0 0 0 0 0 0 0 0 0 0 0 0 0 0 0 0 0 0 0 0 0 0 0 0 0 
0 0 0 0 0 0 0 0 0 0 0 0 0 0 0 0 0 0 0 0 0 0 0 0 0 0 0 0 0 0 0 0 0 0 0 0 0 0 0 0 0 0 0 0 0 0 0 0 0 0 0 0 0 0 0 0 0 -2.92834e-44 -1.18389e-42 -5.826e-42 4.74252e-42 1.53767e-40 5.11613e-40 -1.1566e-39 -1.48375e-38 -3.82459e-38 1.12173e-37 1.12219e-36 2.83432e-36 -5.52127e-36 -6.48932e-35 -1.99319e-34 -5.91362e-36 2.4141e-33 1.04693e-32 1.93953e-32 -2.02157e-32 -2.64853e-31 -9.60508e-31 -2.01374e-30 -1.63883e-30 6.06397e-30 3.32268e-29 9.61301e-29 2.03231e-28 3.2954e-28 3.81059e-28 1.63772e-28 -6.20801e-28 -2.33491e-27 -5.31698e-27 -9.76941e-27 -1.56626e-26 -2.26966e-26 -3.03422e-26 -3.79495e-26 -4.48838e-26 -5.06388e-26 -5.48887e-26 -5.74735e-26 -5.83383e-26 -5.74735e-26 -5.48887e-26 -5.06388e-26 -4.48838e-26 -3.79495e-26 -3.03422e-26 -2.26966e-26 -1.56626e-26 -9.76941e-27 -5.31698e-27 -2.33491e-27 -6.20801e-28 1.63772e-28 3.81059e-28 3.2954e-28 2.03231e-28 9.61301e-29 3.32268e-29 6.06397e-30 -1.63883e-30 -2.01374e-30 -9.60508e-31 -2.64853e-31 -2.02157e-32 1.93953e-32 1.04693e-32 2.4141e-33 -5.91362e-36 -1.99319e-34 -6.48932e-35 -5.52127e-36 2.83432e-36 1.12219e-36 1.12173e-37 -3.82459e-38 -1.48375e-38 -1.1566e-39 5.11613e-40 1.53767e-40 4.74252e-42 -5.826e-42 -1.18389e-42 -2.92834e-44 0 0 0 0 0 0 0 0 0 0 0 0 0 0 0 0 0 0 0 0 0 0 0 0 0 0 0 0 0 0 0 0 0 0 0 0 0 0 0 0 0 0 0 0 0 0 0 0 0 0 0 0 0 0 0 0 
0 0 0 0 0 0 0 0 0 0 0 0 0 0 0 0 0 0 0 0 0 0 0 0 0 0 0 0 0 0 0 0 0 0 0 0 0 0 0 0 0 0 0 0 0 0 0 0 0 0 0 0 0 0 0 0 -1.00504e-43 -2.09941e-42 -7.95235e-42 2.0197e-41 2.66618e-40 5.95812e-40 -3.38598e-39 -2.57849e-38 -3.69415e-38 3.35161e-37 2.03328e-36 2.67614e-36 -2.17665e-35 -1.32195e-34 -2.42097e-34 7.8013e-34 6.44595e-33 1.82175e-32 5.52081e-33 -1.68193e-31 -7.78493e-31 -1.82129e-30 -1.2978e-30 8.32742e-30 4.32855e-29 1.22949e-28 2.40745e-28 2.98578e-28 1.1912e-29 -1.16979e-27 -4.04767e-27 -9.4853e-27 -1.80321e-26 -2.94531e-26 -4.2363e-26 -5.41922e-26 -6.16231e-26 -6.14532e-26 -5.1641e-26 -3.2175e-26 -5.4329e-27 2.41369e-26 5.09643e-26 6.9667e-26 7.63705e-26 6.9667e-26 5.09643e-26 2.41369e-26 -5.4329e-27 -3.2175e-26 -5.1641e-26 -6.14532e-26 -6.16231e-26 -5.41922e-26 -4.2363e-26 -2.94531e-26 -1.80321e-26 -9.4853e-27 -4.04767e-27 -1.16979e-27 1.1912e-29 2.98578e-28 2.40745e-28 1.22949e-28 4.32855e-29 8.32742e-30 -1.2978e-30 -1.82129e-30 -7.78493e-31 -1.68193e-31 5.52081e-33 1.82175e-32 6.44595e-33 7.8013e-34 -2.42097e-34 -1.32195e-34 -2.17665e-35 2.67614e-36 2.03328e-36 3.35161e-37 -3.69415e-38 -2.57849e-38 -3.38598e-39 5.95812e-40 2.66618e-40 2.0197e-41 -7.95235e-42 -2.09941e-42 -1.00504e-43 0 0 0 0 0 0 0 0 0 0 0 0 0 0 0 0 0 0 0 0 0 0 0 0 0 0 0 0 0 0 0 0 0 0 0 0 0 0 0 0 0 0 0 0 0 0 0 0 0 0 0 0 0 0 0 
0 0 0 0 0 0 0 0 0 0 0 0 0 0 0 0 0 0 0 0 0 0 0 0 0 0 0 0 0 0 0 0 0 0 0 0 0 0 0 0 0 0 0 0 0 0 0 0 0 0 0 0 0 0 -0 -2.33324e-43 -3.41324e-42 -9.59423e-42 4.88262e-41 4.21045e-40 5.00802e-40 -7.41754e-39 -3.99701e-38 -7.72645e-39 7.4876e-37 3.17929e-36 -2.71165e-37 -5.46833e-35 -2.22815e-34 -1.04176e-34 2.75132e-33 1.30737e-32 2.0789e-32 -6.67974e-32 -5.18747e-31 -1.53808e-30 -1.61204e-30 6.78063e-30 4.19387e-29 1.2518e-28 2.31439e-28 1.65707e-28 -6.25205e-28 -3.18966e-27 -8.90944e-27 -1.87488e-26 -3.17983e-26 -4.34075e-26 -4.36869e-26 -1.74049e-26 5.3959e-26 1.88019e-25 3.96166e-25 6.78841e-25 1.0231e-24 1.40342e-24 1.78552e-24 2.13189e-24 2.40758e-24 2.58481e-24 2.64589e-24 2.58481e-24 2.40758e-24 2.13189e-24 1.78552e-24 1.40342e-24 1.0231e-24 6.78841e-25 3.96166e-25 1.88019e-25 5.3959e-26 -1.74049e-26 -4.36869e-26 -4.34075e-26 -3.17983e-26 -1.87488e-26 -8.90944e-27 -3.18966e-27 -6.25205e-28 1.65707e-28 2.31439e-28 1.2518e-28 4.19387e-29 6.78063e-30 -1.61204e-30 -1.53808e-30 -5.18747e-31 -6.67974e-32 2.0789e-32 1.30737e-32 2.75132e-33 -1.04176e-34 -2.22815e-34 -5.46833e-35 -2.71165e-37 3.17929e-36 7.4876e-37 -7.72645e-39 -3.99701e-38 -7.41754e-39 5.00802e-40 4.21045e-40 4.88262e-41 -9.59423e-42 -3.41324e-42 -2.33324e-43 -0 0 0 0 0 0 0 0 0 0 0 0 0 0 0 0 0 0 0 0 0 0 0 0 0 0 0 0 0 0 0 0 0 0 0 0 0 0 0 0 0 0 0 0 0 0 0 0 0 0 0 0 0 0 
0 0 0 0 0 0 0 0 0 0 0 0 0 0 0 0 0 0 0 0 0 0 0 0 0 0 0 0 0 0 0 0 0 0 0 0 0 0 0 0 0 0 0 0 0 0 0 0 0 0 0 0 0 -0 -5.13158e-43 -5.22666e-42 -9.76957e-42 9.62597e-41 6.11831e-40 4.70148e-41 -1.38947e-38 -5.53548e-38 7.52687e-38 1.41848e-36 4.24428e-36 -8.91332e-36 -1.10783e-34 -3.07787e-34 4.73128e-34 6.5839e-33 2.10276e-32 1.30036e-33 -2.58106e-31 -1.11933e-30 -1.96499e-30 3.02029e-30 3.16165e-29 1.08582e-28 2.05723e-28 6.38015e-29 -1.10497e-27 -4.80312e-27 -1.27122e-26 -2.45677e-26 -3.39133e-26 -2.24449e-26 4.45344e-26 2.17739e-25 5.55374e-25 1.10625e-24 1.88892e-24 2.8749e-24 3.98473e-24 5.10163e-24 6.10016e-24 6.88103e-24 7.3986e-24 7.67057e-24 7.76551e-24 7.77281e-24 7.76585e-24 7.77281e-24 7.76551e-24 7.67057e-24 7.3986e-24 6.88103e-24 6.10016e-24 5.10163e-24 3.98473e-24 2.8749e-24 1.88892e-24 1.10625e-24 5.55374e-25 2.17739e-25 4.45344e-26 -2.24449e-26 -3.39133e-26 -2.45677e-26 -1.27122e-26 -4.80312e-27 -1.10497e-27 6.38015e-29 2.05723e-28 1.08582e-28 3.16165e-29 3.02029e-30 -1.96499e-30 -1.11933e-30 -2.58106e-31 1.30036e-33 2.10276e-32 6.5839e-33 4.73128e-34 -3.07787e-34 -1.10783e-34 -8.91332e-36 4.24428e-36 1.41848e-36 7.52687e-38 -5.53548e-38 -1.38947e-38 4.70148e-41 6.11831e-40 9.62597e-41 -9.76957e-42 -5.22666e-42 -5.13158e-43 -0 0 0 0 0 0 0 0 0 0 0 0 0 0 0 0 0 0 0 0 0 0 0 0 0 0 0 0 0 0 0 0 0 0 0 0 0 0 0 0 0 0 0 0 0 0 0 0 0 0 0 0 0 
0 0 0 0 0 0 0 0 0 0 0 0 0 0 0 0 0 0 0 0 0 0 0 0 0 0 0 0 0 0 0 0 0 0 0 0 0 0 0 0 0 0 0 0 0 0 0 0 0 0 0 0 -1.39918e-45 -8.74488e-43 -7.37368e-42 -7.38488e-42 1.67106e-40 8.21242e-40 -1.0013e-39 -2.33368e-38 -6.75201e-38 2.46058e-37 2.38253e-36 4.55843e-36 -2.71912e-35 -1.93037e-34 -3.16943e-34 1.87325e-33 1.27171e-32 2.54405e-32 -7.05529e-32 -6.33369e-31 -1.8219e-30 -4.38708e-31 1.78655e-29 8.10557e-29 1.80086e-28 6.87507e-29 -1.13222e-27 -5.20483e-27 -1.38429e-26 -2.44245e-26 -2.09393e-26 3.85062e-26 2.30494e-25 6.58863e-25 1.41857e-24 2.5281e-24 3.84607e-24 5.00639e-24 5.41402e-24 4.33061e-24 1.04725e-24 -4.89667e-24 -1.35168e-23 -2.42778e-23 -3.61208e-23 -4.76236e-23 -5.72541e-23 -6.36555e-23 -6.58993e-23 -6.36555e-23 -5.72541e-23 -4.76236e-23 -3.61208e-23 -2.42778e-23 -1.35168e-23 -4.89667e-24 1.04725e-24 4.33061e-24 5.41402e-24 5.00639e-24 3.84607e-24 2.5281e-24 1.41857e-24 6.58863e-25 2.30494e-25 3.85062e-26 -2.09393e-26 -2.44245e-26 -1.38429e-26 -5.20483e-27 -1.13222e-27 6.87507e-29 1.80086e-28 8.10557e-29 1.78655e-29 -4.38708e-31 -1.8219e-30 -6.33369e-31 -7.05529e-32 2.54405e-32 1.27171e-32 1.87325e-33 -3.16943e-34 -1.93037e-34 -2.71912e-35 4.55843e-36 2.38253e-36 2.46058e-37 -6.75201e-38 -2.33368e-38 -1.0013e-39 8.21242e-40 1.67106e-40 -7.38488e-42 -7.37368e-42 -8.74488e-43 -1.39918e-45 0 0 0 0 0 0 0 0 0 0 0 0 0 0 0 0 0 0 0 0 0 0 0 0 0 0 0 0 0 0 0 0 0 0 0 0 0 0 0 0 0 0 0 0 0 0 0 0 0 0 0 
0 0 0 0 0 0 0 0 0 0 0 0 0 0 0 0 0 0 0 0 0 0 0 0 0 0 0 0 0 0 0 0 0 0 0 0 0 0 0 0 0 0 0 0 0 0 0 0 0 0 0 -1.39994e-44 -1.42234e-42 -9.8598e-42 -9.50561e-43 2.65142e-40 1.01635e-39 -2.91884e-39 -3.59592e-38 -6.92026e-38 5.4365e-37 3.61951e-36 3.012e-36 -5.9624e-35 -2.96012e-34 -1.2455e-34 4.56052e-33 2.07798e-32 1.57754e-32 -2.37443e-31 -1.21534e-30 -2.05547e-30 6.09454e-30 4.95147e-29 1.46789e-28 1.36517e-28 -7.67714e-28 -4.42128e-27 -1.26438e-26 -2.11313e-26 -4.72095e-27 1.03947e-25 4.25903e-25 1.10269e-24 2.17705e-24 3.3694e-24 3.79175e-24 1.71585e-24 -5.4428e-24 -2.07926e-23 -4.72745e-23 -8.67683e-23 -1.39295e-22 -2.02627e-22 -2.72494e-22 -3.43339e-22 -4.09355e-22 -4.65444e-22 -5.078e-22 -5.34023e-22 -5.42886e-22 -5.34023e-22 -5.078e-22 -4.65444e-22 -4.09355e-22 -3.43339e-22 -2.72494e-22 -2.02627e-22 -1.39295e-22 -8.67683e-23 -4.72745e-23 -2.07926e-23 -5.4428e-24 1.71585e-24 3.79175e-24 3.3694e-24 2.17705e-24 1.10269e-24 4.25903e-25 1.03947e-25 -4.72095e-27 -2.11313e-26 -1.26438e-26 -4.42128e-27 -7.67714e-28 1.36517e-28 1.46789e-28 4.95147e-29 6.09454e-30 -2.05547e-30 -1.21534e-30 -2.37443e-31 1.57754e-32 2.07798e-32 4.56052e-33 -1.2455e-34 -2.96012e-34 -5.9624e-35 3.012e-36 3.61951e-36 5.4365e-37 -6.92026e-38 -3.59592e-38 -2.91884e-39 1.01635e-39 2.65142e-40 -9.50561e-43 -9.8598e-42 -1.42234e-42 -1.39994e-44 0 0 0 0 0 0 0 0 0 0 0 0 0 0 0 0 0 0 0 0 0 0 0 0 0 0 0 0 0 0 0 0 0 0 0 0 0 0 0 0 0 0 0 0 0 0 0 0 0 0 
0 0 0 0 0 0 0 0 0 0 0 0 0 0 0 0 0 0 0 0 0 0 0 0 0 0 0 0 0 0 0 0 0 0 0 0 0 0 0 0 0 0 0 0 0 0 0 0 0 0 -4.06155e-44 -2.13442e-42 -1.25628e-41 1.10404e-41 3.92251e-40 1.1493e-39 -5.98933e-39 -5.14995e-38 -5.02755e-38 1.00646e-36 5.0153e-36 -1.96111e-36 -1.10408e-34 -4.0034e-34 4.56538e-34 8.96705e-33 2.88298e-32 -2.56182e-32 -5.45232e-31 -1.9052e-30 -5.83712e-31 2.19425e-29 1.002e-28 1.79821e-28 -2.86058e-28 -2.98365e-27 -1.01394e-26 -1.81153e-26 1.41692e-27 1.31903e-25 5.25322e-25 1.32339e-24 2.37821e-24 2.70461e-24 -2.4304e-25 -1.11273e-23 -3.65757e-23 -8.38205e-23 -1.58039e-22 -2.59006e-22 -3.78345e-22 -4.98917e-22 -5.97404e-22 -6.4996e-22 -6.39447e-22 -5.61853e-22 -4.29454e-22 -2.69293e-22 -1.171e-22 -8.34382e-24 3.10699e-23 -8.34382e-24 -1.171e-22 -2.69293e-22 -4.29454e-22 -5.61853e-22 -6.39447e-22 -6.4996e-22 -5.97404e-22 -4.98917e-22 -3.78345e-22 -2.59006e-22 -1.58039e-22 -8.38205e-23 -3.65757e-23 -1.11273e-23 -2.4304e-25 2.70461e-24 2.37821e-24 1.32339e-24 5.25322e-25 1.31903e-25 1.41692e-27 -1.81153e-26 -1.01394e-26 -2.98365e-27 -2.86058e-28 1.79821e-28 1.002e-28 2.19425e-29 -5.83712e-31 -1.9052e-30 -5.45232e-31 -2.56182e-32 2.88298e-32 8.96705e-33 4.56538e-34 -4.0034e-34 -1.10408e-34 -1.96111e-36 5.0153e-36 1.00646e-36 -5.02755e-38 -5.14995e-38 -5.98933e-39 1.1493e-39 3.92251e-40 1.10404e-41 -1.25628e-41 -2.13442e-42 -4.06155e-44 0 0 0 0 0 0 0 0 0 0 0 0 0 0 0 0 0 0 0 0 0 0 0 0 0 0 0 0 0 0 0 0 0 0 0 0 0 0 0 0 0 0 0 0 0 0 0 0 0 
0 0 0 0 0 0 0 0 0 0 0 0 0 0 0 0 0 0 0 0 0 0 0 0 0 0 0 0 0 0 0 0 0 0 0 0 0 0 0 0 0 0 0 0 0 0 0 0 0 -9.10624e-44 -3.01767e-42 -1.52396e-41 3.00254e-41 5.47488e-40 1.16073e-39 -1.04675e-38 -6.90946e-38 1.71299e-39 1.66508e-36 6.33766e-36 -1.23031e-35 -1.82159e-34 -4.67855e-34 1.66625e-33 1.53103e-32 3.25678e-32 -1.23285e-31 -1.02325e-30 -2.38058e-30 4.63115e-30 5.13887e-29 1.58415e-28 6.23348e-29 -1.49456e-27 -7.02728e-27 -1.56072e-26 -3.82145e-27 1.11887e-25 4.97035e-25 1.28245e-24 2.09174e-24 1.0345e-24 -6.65944e-24 -2.94877e-23 -7.83903e-23 -1.6159e-22 -2.74918e-22 -3.89404e-22 -4.4079e-22 -3.27335e-22 7.87647e-23 9.05293e-22 2.24443e-21 4.11804e-21 6.45542e-21 9.09193e-21 1.17895e-20 1.42733e-20 1.62753e-20 1.75736e-20 1.80232e-20 1.75736e-20 1.62753e-20 1.42733e-20 1.17895e-20 9.09193e-21 6.45542e-21 4.11804e-21 2.24443e-21 9.05293e-22 7.87647e-23 -3.27335e-22 -4.4079e-22 -3.89404e-22 -2.74918e-22 -1.6159e-22 -7.83903e-23 -2.94877e-23 -6.65944e-24 1.0345e-24 2.09174e-24 1.28245e-24 4.97035e-25 1.11887e-25 -3.82145e-27 -1.56072e-26 -7.02728e-27 -1.49456e-27 6.23348e-29 1.58415e-28 5.13887e-29 4.63115e-30 -2.38058e-30 -1.02325e-30 -1.23285e-31 3.25678e-32 1.53103e-32 1.66625e-33 -4.67855e-34 -1.82159e-34 -1.23031e-35 6.33766e-36 1.66508e-36 1.71299e-39 -6.90946e-38 -1.04675e-38 1.16073e-39 5.47488e-40 3.00254e-41 -1.52396e-41 -3.01767e-42 -9.10624e-44 0 0 0 0 0 0 0 0 0 0 0 0 0 0 0 0 0 0 0 0 0 0 0 0 0 0 0 0 0 0 0 0 0 0 0 0 0 0 0 0 0 0 0 0 0 0 0 0 
0 0 0 0 0 0 0 0 0 0 0 0 0 0 0 0 0 0 0 0 0 0 0 0 0 0 0 0 0 0 0 0 0 0 0 0 0 0 0 0 0 0 0 0 0 0 0 0 -1.56936e-43 -4.12938e-42 -1.76889e-41 5.72368e-41 7.27203e-40 9.83987e-40 -1.65419e-38 -8.72437e-38 1.00514e-37 2.53495e-36 7.22587e-36 -3.01556e-35 -2.7452e-34 -4.38847e-34 3.77148e-33 2.33647e-32 2.47525e-32 -3.05929e-31 -1.65457e-30 -1.99655e-30 1.63085e-29 9.59696e-29 1.86533e-28 -4.08998e-28 -3.91576e-27 -1.21861e-26 -1.19857e-26 6.44977e-26 3.79447e-25 1.08215e-24 1.71676e-24 -2.2466e-25 -1.1382e-23 -4.34373e-23 -1.08891e-22 -2.06634e-22 -2.94489e-22 -2.52731e-22 1.47582e-22 1.24996e-21 3.47109e-21 7.20648e-21 1.27012e-20 1.99286e-20 2.85291e-20 3.78465e-20 4.70631e-20 5.53909e-20 6.22513e-20 6.73741e-20 7.07842e-20 7.26829e-20 7.32861e-20 7.26829e-20 7.07842e-20 6.73741e-20 6.22513e-20 5.53909e-20 4.70631e-20 3.78465e-20 2.85291e-20 1.99286e-20 1.27012e-20 7.20648e-21 3.47109e-21 1.24996e-21 1.47582e-22 -2.52731e-22 -2.94489e-22 -2.06634e-22 -1.08891e-22 -4.34373e-23 -1.1382e-23 -2.2466e-25 1.71676e-24 1.08215e-24 3.79447e-25 6.44977e-26 -1.19857e-26 -1.21861e-26 -3.91576e-27 -4.08998e-28 1.86533e-28 9.59696e-29 1.63085e-29 -1.99655e-30 -1.65457e-30 -3.05929e-31 2.47525e-32 2.33647e-32 3.77148e-33 -4.38847e-34 -2.7452e-34 -3.01556e-35 7.22587e-36 2.53495e-36 1.00514e-37 -8.72437e-38 -1.65419e-38 9.83987e-40 7.27203e-40 5.72368e-41 -1.76889e-41 -4.12938e-42 -1.56936e-43 0 0 0 0 0 0 0 0 0 0 0 0 0 0 0 0 0 0 0 0 0 0 0 0 0 0 0 0 0 0 0 0 0 0 0 0 0 0 0 0 0 0 0 0 0 0 0 