<?xml version="1.0"?>
<VTKFile type="ImageData" version="0.1" byte_order="LittleEndian">
<ImageData WholeExtent="0 199 0 199 0 0" Origin="0 0 0" Spacing="15 15 0">
<Piece Extent="0 199 0 199 0 0">
<PointData Scalars="Amplitude">
<DataArray type="Float32" Name="Amplitude" format="ascii">
0 0 0 0 0 0 0 0 0 0 0 0 0 0 0 0 0 0 0 0 0 0 0 0 0 0 0 0 0 0 0 0 0 0 0 0 0 0 0 0 0 0 0 0 0 0 0 0 0 0 0 0 0 0 0 0 0 0 0 0 0 0 0 0 0 0 0 0 0 0 0 0 0 0 0 0 0 0 0 0 0 0 0 0 0 0 0 0 0 0 0 0 0 0 0 0 0 0 0 0 0 0 0 0 0 0 0 0 0 0 0 0 0 0 0 0 0 0 0 0 0 0 0 0 0 0 0 0 0 0 0 0 0 0 0 0 0 0 0 0 0 0 0 0 0 0 0 0 0 0 0 0 0 0 0 0 0 0 0 0 0 0 0 0 0 0 0 0 0 0 0 0 0 0 0 0 0 0 0 0 0 0 0 0 0 0 0 0 0 0 0 0 0 0 0 0 0 0 0 0 
0 0 0 0 0 0 0 0 0 0 0 0 0 0 0 0 0 0 0 0 0 0 0 0 0 0 0 0 0 0 0 0 0 0 0 0 0 0 0 0 0 0 0 0 0 0 0 0 0 0 0 0 0 0 0 0 0 0 0 0 0 0 0 0 0 0 0 0 0 0 0 0 0 0 0 0 0 0 0 0 0 0 0 0 0 0 0 0 0 0 0 0 0 0 0 0 0 0 0 0 0 0 0 0 0 0 0 0 0 0 0 0 0 0 0 0 0 0 0 0 0 0 0 0 0 0 0 0 0 0 0 0 0 0 0 0 0 0 0 0 0 0 0 0 0 0 0 0 0 0 0 0 0 0 0 0 0 0 0 0 0 0 0 0 0 0 0 0 0 0 0 0 0 0 0 0 0 0 0 0 0 0 0 0 0 0 0 0 0 0 0 0 0 0 0 0 0 0 0 0 
0 0 1.26076e-06 2.88642e-06 4.75616e-06 2.21684e-06 -5.65564e-06 -1.0931e-05 -1.14776e-06 1.99222e-05 2.23203e-05 -1.47858e-05 -5.59745e-05 -3.7862e-05 3.48433e-05 7.01591e-05 1.04025e-05 -7.08442e-05 -5.80236e-05 4.61076e-05 0.00012194 9.34692e-05 2.20875e-05 1.8332e-05 0.000104885 0.000201912 0.000229109 0.000189202 0.000150849 0.000169181 0.000233008 0.000283833 0.000275687 0.0002144 0.000145762 0.000111964 0.000118074 0.000133567 0.000121357 6.74725e-05 -1.05566e-05 -7.88188e-05 -0.000111172 -0.000104775 -7.85362e-05 -5.84673e-05 -6.11286e-05 -8.52847e-05 -0.000115021 -0.000130553 -0.000119456 -8.24597e-05 -3.19787e-05 1.45583e-05 4.25775e-05 4.57297e-05 2.71256e-05 -3.19479e-06 -3.27786e-05 -5.12335e-05 -5.3205e-05 -3.91782e-05 -1.43173e-05 1.37915e-05 3.76006e-05 5.15501e-05 5.31042e-05 4.28408e-05 2.37805e-05 3.09403e-07 -2.29604e-05 -4.21036e-05 -5.44599e-05 -5.88433e-05 -5.54408e-05 -4.54933e-05 -3.08882e-05 -1.37642e-05 3.83095e-06 2.01691e-05 3.39914e-05 4.45246e-05 5.14526e-05 5.48363e-05 5.50113e-05 5.24923e-05 4.78802e-05 4.17838e-05 3.4762e-05 2.73082e-05 1.98233e-05 1.26137e-05 5.91367e-06 -1.18388e-07 -5.38659e-06 -9.85141e-06 -1.34857e-05 -1.62739e-05 -1.82285e-05 -1.93788e-05 -1.97557e-05 -1.93787e-05 -1.82284e-05 -1.62739e-05 -1.34854e-05 -9.85088e-06 -5.38582e-06 -1.17792e-07 5.91395e-06 1.26136e-05 1.9822e-05 2.73048e-05 3.47559e-05 4.17748e-05 4.78687e-05 5.24782e-05 5.49946e-05 5.48174e-05 5.14348e-05 4.45145e-05 3.39932e-05 2.01801e-05 3.84351e-06 -1.37563e-05 -3.08863e-05 -4.54953e-05 -5.54405e-05 -5.88363e-05 -5.44481e-05 -4.20916e-05 -2.29484e-05 3.2515e-07 2.3812e-05 4.29054e-05 5.31804e-05 5.14679e-05 3.68355e-05 1.12427e-05 -2.03383e-05 -5.04351e-05 -7.02911e-05 -7.1933e-05 -5.11117e-05 -1.05673e-05 3.81102e-05 7.63227e-05 8.52159e-05 5.54362e-05 -5.62606e-06 -7.50948e-05 -0.000125615 -0.000140208 -0.000121274 -8.78669e-05 -6.35515e-05 -6.28721e-05 -8.37263e-05 -0.000108519 -0.000113128 -8.06328e-05 -1.36437e-05 6.34151e-05 0.000117534 0.000130403 0.000114807 0.000107727 0.000140617 0.000209155 0.000270938 0.000279379 0.000228215 0.00016371 0.000144886 0.000183002 0.000223192 0.000197029 0.000101453 1.59965e-05 1.98386e-05 9.06988e-05 0.000119204 4.44809e-05 -5.83238e-05 -7.08002e-05 9.82585e-06 6.91482e-05 3.42838e-05 -3.76558e-05 -5.55605e-05 -1.47367e-05 2.20717e-05 1.98047e-05 -9.3001e-07 -1.05846e-05 -5.63111e-06 1.46766e-06 3.19839e-06 2.22103e-06 0 0 
0 0 2.88642e-06 4.99825e-06 4.80376e-06 -3.09262e-06 -1.1669e-05 -4.01942e-06 2.06207e-05 2.59916e-05 -2.04527e-05 -7.56157e-05 -5.04877e-05 4.7305e-05 8.08656e-05 -2.30479e-05 -0.000130502 -7.32756e-05 9.56494e-05 0.000166425 7.1327e-05 -2.4158e-05 4.57213e-05 0.000235123 0.000365819 0.000353433 0.000287635 0.000304881 0.000433521 0.000576888 0.000624651 0.000560004 0.000461544 0.000417311 0.000444199 0.000482423 0.000456441 0.000340424 0.000175116 3.11982e-05 -4.4047e-05 -5.53493e-05 -4.78113e-05 -7.02177e-05 -0.000141784 -0.000242582 -0.000329184 -0.000361873 -0.00032618 -0.000238361 -0.000134711 -5.2943e-05 -1.57707e-05 -2.3664e-05 -5.83329e-05 -9.35327e-05 -0.000107138 -8.93184e-05 -4.4375e-05 1.29798e-05 6.44565e-05 9.49378e-05 9.69188e-05 7.16307e-05 2.74342e-05 -2.34972e-05 -6.88226e-05 -9.9025e-05 -0.000109064 -9.86686e-05 -7.14754e-05 -3.36225e-05 7.79415e-06 4.61815e-05 7.64379e-05 9.54107e-05 0.000101969 9.67246e-05 8.15362e-05 5.9e-05 3.19793e-05 3.23463e-06 -2.48703e-05 -5.05272e-05 -7.25152e-05 -9.01774e-05 -0.000103342 -0.000112214 -0.000117228 -0.00011898 -0.000118158 -0.000115453 -0.00011145 -0.000106728 -0.000101782 -9.70224e-05 -9.2741e-05 -8.91865e-05 -8.65298e-05 -8.48819e-05 -8.43188e-05 -8.48811e-05 -8.65294e-05 -8.91862e-05 -9.27399e-05 -9.70208e-05 -0.00010178 -0.000106726 -0.000111449 -0.000115454 -0.000118163 -0.00011899 -0.000117245 -0.000112238 -0.000103373 -9.02147e-05 -7.25573e-05 -5.05665e-05 -2.48947e-05 3.23504e-06 3.1999e-05 5.90247e-05 8.15536e-05 9.67333e-05 0.000101974 9.54214e-05 7.64617e-05 4.62112e-05 7.81636e-06 -3.36076e-05 -7.14576e-05 -9.86231e-05 -0.000108943 -9.88273e-05 -6.8815e-05 -2.46369e-05 2.29472e-05 6.01326e-05 7.4097e-05 5.83208e-05 1.7195e-05 -3.32181e-05 -7.04786e-05 -7.64632e-05 -4.80334e-05 -5.35886e-07 3.94972e-05 4.80485e-05 1.44668e-05 -5.70574e-05 -0.000152734 -0.000253352 -0.00033445 -0.000368969 -0.000339403 -0.000254055 -0.000150466 -7.55699e-05 -5.2929e-05 -6.26538e-05 -5.27576e-05 2.30982e-05 0.00016786 0.000332356 0.000446372 0.000471035 0.00043299 0.000406793 0.000450906 0.000548361 0.000612202 0.00056468 0.000422217 0.000292718 0.00027734 0.000343385 0.000356279 0.000227597 4.06906e-05 -2.80263e-05 6.69896e-05 0.000161753 9.23652e-05 -7.4255e-05 -0.000130406 -2.36302e-05 7.94954e-05 4.63644e-05 -5.04133e-05 -7.51558e-05 -2.02546e-05 2.60763e-05 2.09434e-05 -3.74112e-06 -1.22695e-05 -4.99359e-06 2.67199e-06 3.14917e-06 0 0 
0 0 4.75616e-06 4.80376e-06 -4.28242e-06 -2.01343e-05 -1.668e-05 2.43463e-05 5.61312e-05 -4.30815e-06 -0.00012789 -0.000133963 5.39277e-05 0.000194705 2.54798e-05 -0.000274648 -0.000261879 0.00010051 0.000331694 0.000122117 -0.00021387 -0.000187197 0.000205502 0.00052269 0.000471935 0.000233958 0.000185357 0.000453896 0.000814907 0.000967385 0.000841989 0.000633702 0.000578712 0.000728385 0.00092441 0.000961605 0.000767152 0.000446269 0.000181004 8.52781e-05 0.000132346 0.000194336 0.000146316 -4.74086e-05 -0.000318279 -0.000546449 -0.000637008 -0.000570018 -0.000401362 -0.000223574 -0.000115457 -0.000107793 -0.000177717 -0.000268111 -0.00031856 -0.000292066 -0.00018768 -3.66065e-05 0.00011335 0.00021677 0.000246042 0.000198222 9.26189e-05 -3.78391e-05 -0.000157529 -0.000237802 -0.000262878 -0.00023152 -0.000154763 -5.14104e-05 5.73424e-05 0.000152332 0.000219462 0.000251224 0.000246588 0.000209786 0.000148595 7.252e-05 -8.94595e-06 -8.74378e-05 -0.000156538 -0.000211906 -0.000251337 -0.000274502 -0.000282455 -0.000277219 -0.000261372 -0.00023766 -0.000208656 -0.000176728 -0.000143906 -0.000111762 -8.14472e-05 -5.38423e-05 -2.95382e-05 -8.81139e-06 8.18233e-06 2.13128e-05 3.05978e-05 3.61226e-05 3.79484e-05 3.61238e-05 3.05992e-05 2.13149e-05 8.1857e-06 -8.80774e-06 -2.95339e-05 -5.38389e-05 -8.1447e-05 -0.000111768 -0.000143919 -0.000176751 -0.000208691 -0.000237707 -0.00026143 -0.000277285 -0.000282521 -0.000274548 -0.000251341 -0.00021187 -0.000156491 -8.7405e-05 -8.93243e-06 7.25255e-05 0.00014861 0.000209829 0.000246652 0.000251272 0.000219482 0.000152343 5.73728e-05 -5.12839e-05 -0.000154453 -0.000231195 -0.000263556 -0.000242303 -0.000171271 -6.82949e-05 3.9145e-05 0.000122848 0.000163919 0.000158301 0.000114445 4.55601e-05 -3.63606e-05 -0.000118879 -0.000183489 -0.000208656 -0.000187589 -0.000147823 -0.00014733 -0.000236103 -0.000407594 -0.000583895 -0.000657273 -0.000562577 -0.000325895 -5.26641e-05 0.000136179 0.000179741 0.000118787 7.49208e-05 0.000170321 0.000431419 0.00074892 0.000943793 0.000908918 0.000713428 0.000561651 0.000614489 0.000823188 0.000951214 0.000800818 0.000439469 0.000174067 0.000222385 0.000458269 0.000509348 0.000196405 -0.000191534 -0.000217364 0.00011595 0.000324378 9.64971e-05 -0.000261459 -0.000273489 2.4076e-05 0.000191838 5.25946e-05 -0.0001331 -0.00012645 -3.47055e-06 5.63328e-05 2.36591e-05 -1.90051e-05 -2.34167e-05 -4.98741e-06 1.12201e-06 0 0 
0 0 2.21684e-06 -3.09262e-06 -2.01343e-05 -1.80901e-05 2.1439e-05 5.11576e-05 -1.77333e-05 -0.000147854 -0.000129165 0.000100335 0.000208522 -8.52894e-05 -0.000426373 -0.000245187 0.000276821 0.000360249 -0.000167471 -0.000545953 -0.000199588 0.000436591 0.000575899 0.000156572 -0.000155497 0.000127071 0.000762934 0.00115278 0.00103616 0.000717222 0.000671406 0.00103959 0.00152415 0.00171583 0.0014773 0.00103061 0.00072428 0.000729933 0.000926402 0.00103158 0.000838166 0.000362037 -0.000187888 -0.000566845 -0.000652664 -0.00050474 -0.000304263 -0.000231611 -0.000362176 -0.000635502 -0.000903284 -0.00101672 -0.000901939 -0.000589058 -0.000189565 0.000159534 0.000352812 0.0003515 0.000186947 -6.08684e-05 -0.00029732 -0.000444963 -0.000464029 -0.000356878 -0.000160319 7.01265e-05 0.000277388 0.000416863 0.000464349 0.00041765 0.000292941 0.000118296 -7.34473e-05 -0.000251652 -0.000392601 -0.000481572 -0.000513212 -0.000490174 -0.000421063 -0.000317857 -0.000193877 -6.18316e-05 6.73217e-05 0.000185148 0.000285949 0.000366668 0.000426541 0.000466548 0.000488775 0.000495953 0.000491242 0.000477887 0.000458505 0.000435815 0.000412118 0.000389484 0.000369171 0.000352274 0.000339577 0.000331669 0.000328932 0.000331668 0.00033958 0.000352283 0.00036918 0.000389493 0.000412127 0.000435816 0.000458496 0.000477863 0.000491203 0.000495895 0.000488695 0.000466448 0.000426427 0.00036656 0.000285882 0.000185149 6.73778e-05 -6.17698e-05 -0.000193837 -0.000317829 -0.000421026 -0.000490121 -0.00051313 -0.000481476 -0.000392551 -0.000251658 -7.34504e-05 0.000118345 0.00029315 0.000418186 0.000464967 0.000415909 0.000270233 4.77111e-05 -0.000210734 -0.000446349 -0.000591132 -0.000584005 -0.000395765 -5.60894e-05 0.000332387 0.00061569 0.000651008 0.000385303 -0.000100627 -0.000621562 -0.000982441 -0.00107655 -0.000925238 -0.000645531 -0.000385184 -0.000264051 -0.00032794 -0.000514569 -0.000661 -0.00058443 -0.000211089 0.000342594 0.000823209 0.0010135 0.000900872 0.000701223 0.000698494 0.00100776 0.00145264 0.00168696 0.00149426 0.00101362 0.000650364 0.000697638 0.00101441 0.00112898 0.000743075 0.000114604 -0.000165172 0.000143442 0.00055892 0.000422179 -0.000206243 -0.00054794 -0.000172144 0.000351445 0.00026989 -0.000246128 -0.000424834 -8.64045e-05 0.000205323 9.91529e-05 -0.00012717 -0.000145413 -1.7713e-05 4.81523e-05 1.73542e-05 -1.86809e-05 -1.30622e-05 -7.00817e-06 0 0 
0 0 -5.65564e-06 -1.1669e-05 -1.668e-05 2.1439e-05 5.26424e-05 -2.98632e-05 -0.000184192 -0.000142917 0.000167846 0.000274781 -0.000195646 -0.000651368 -0.000258614 0.000528089 0.0004313 -0.000556421 -0.000983546 -0.000168305 0.000742646 0.00051416 -0.000425171 -0.000706842 0.00010183 0.00108347 0.00125624 0.00070496 0.000330691 0.000760658 0.00171543 0.00239737 0.0023313 0.00176899 0.00135803 0.00150362 0.0020385 0.00242785 0.00224876 0.00151669 0.000630645 4.35702e-05 -5.71756e-05 0.000161317 0.000338644 0.000181778 -0.000356281 -0.00107293 -0.00165629 -0.00186495 -0.00164161 -0.00111816 -0.000532241 -0.000111428 1.99931e-05 -0.000124884 -0.000421952 -0.0007024 -0.000824596 -0.000722777 -0.000420588 -1.09696e-05 0.000385372 0.000661102 0.000751614 0.000646932 0.000385506 3.77099e-05 -0.000316359 -0.00060556 -0.000781376 -0.000822889 -0.000735142 -0.000543577 -0.000285435 -1.65031e-06 0.000270125 0.000500077 0.000669003 0.000767858 0.000796817 0.000762406 0.000675542 0.000549845 0.000399023 0.000235838 7.11946e-05 -8.65317e-05 -0.000231671 -0.000360466 -0.000471071 -0.000563501 -0.000638866 -0.000698527 -0.000744291 -0.000778539 -0.000803475 -0.000820876 -0.000832188 -0.000838562 -0.000840604 -0.000838566 -0.000832185 -0.000820862 -0.000803458 -0.00077853 -0.000744295 -0.00069855 -0.00063891 -0.000563567 -0.000471167 -0.000360597 -0.000231841 -8.67233e-05 7.10212e-05 0.00023574 0.00039903 0.00054993 0.000675628 0.000762453 0.000796864 0.000767942 0.000669118 0.00050021 0.000270246 -1.61995e-06 -0.0002855 -0.000543603 -0.000735037 -0.000822544 -0.000780484 -0.0006044 -0.000317499 2.68539e-05 0.000349969 0.000564943 0.000603338 0.000447186 0.000148326 -0.000180589 -0.000412153 -0.000468221 -0.00036154 -0.000182925 -3.86565e-05 6.99456e-06 -6.63081e-05 -0.000275256 -0.00064551 -0.0011537 -0.00165418 -0.00190353 -0.0017121 -0.00111004 -0.000367065 0.000171421 0.000309404 0.000123144 -8.62437e-05 2.23097e-05 0.00060156 0.00147424 0.00220335 0.00238939 0.00200363 0.0014632 0.00131103 0.00172376 0.00229504 0.00236808 0.0016858 0.000727429 0.000298264 0.000678839 0.00122655 0.00105685 8.63414e-05 -0.000714018 -0.000435697 0.000494293 0.00072178 -0.000178111 -0.00098343 -0.000559183 0.000419775 0.000516422 -0.00026153 -0.000648728 -0.000195151 0.000272752 0.000167553 -0.000141585 -0.000185325 -3.41548e-05 5.08842e-05 2.88399e-05 -3.56915e-06 -1.21646e-05 0 0 
0 0 -1.0931e-05 -4.01942e-06 2.43463e-05 5.11576e-05 -2.98632e-05 -0.000193391 -0.000149798 0.000201353 0.000299216 -0.00030608 -0.000810628 -0.000169231 0.000794853 0.000326002 -0.00113952 -0.00130874 0.000205934 0.00110237 3.17383e-06 -0.00146254 -0.00118613 0.000462653 0.00140425 0.000719071 -0.000385788 -0.000291149 0.00113927 0.00259068 0.00287221 0.002121 0.001486 0.00186984 0.00308583 0.00413833 0.00418198 0.00321974 0.00200374 0.00135105 0.00151146 0.00205418 0.00226648 0.00169395 0.000428891 -0.000996709 -0.00197782 -0.00219573 -0.00176244 -0.00110156 -0.000675745 -0.000738173 -0.00123431 -0.00187367 -0.00230059 -0.00226951 -0.00173875 -0.000863181 8.91643e-05 0.000844554 0.00121388 0.00114002 0.000696327 4.41187e-05 -0.000621956 -0.00112992 -0.00136874 -0.00130456 -0.000974471 -0.000465801 0.000111062 0.000648639 0.00106065 0.00129493 0.00133526 0.00119559 0.000911917 0.000531885 0.000106876 -0.000316715 -0.000700927 -0.00101994 -0.00125843 -0.00141157 -0.00148234 -0.00147982 -0.00141703 -0.00130841 -0.00116809 -0.00100855 -0.00084095 -0.000674654 -0.000515351 -0.000368689 -0.000238072 -0.000126647 -3.48561e-05 3.6573e-05 8.76351e-05 0.000118164 0.000128662 0.000118171 8.76443e-05 3.65849e-05 -3.48399e-05 -0.00012666 -0.000238108 -0.00036876 -0.000515459 -0.000674796 -0.000841164 -0.00100884 -0.0011684 -0.00130869 -0.00141718 -0.00147981 -0.00148223 -0.00141144 -0.00125837 -0.00101984 -0.000700746 -0.000316533 0.000107029 0.00053201 0.00091193 0.00119546 0.00133524 0.00129515 0.00106118 0.000649956 0.000113029 -0.000466769 -0.000989542 -0.00135704 -0.00149415 -0.00136297 -0.000966379 -0.000347156 0.000405525 0.0011376 0.00162393 0.0016145 0.000965072 -0.000215696 -0.0015277 -0.00244265 -0.00260916 -0.00208535 -0.0012978 -0.000753729 -0.000735759 -0.00119279 -0.001821 -0.00220862 -0.00199145 -0.00104309 0.000370116 0.00165266 0.00223585 0.0020069 0.00144344 0.00128332 0.00194852 0.00316588 0.00411593 0.00406531 0.00302204 0.00182129 0.00144323 0.00207337 0.00282204 0.00254974 0.00111406 -0.000306262 -0.000398977 0.000692162 0.00136991 0.000438999 -0.00119221 -0.00146576 -1.4724e-05 0.00107442 0.000188637 -0.00130934 -0.00114046 0.000311966 0.000778262 -0.000173111 -0.000804265 -0.000301983 0.000296712 0.000196161 -0.000154274 -0.000194154 -2.25329e-05 6.38439e-05 2.49874e-05 1.17456e-06 0 0 
0 0 -1.14776e-06 2.06207e-05 5.61312e-05 -1.77333e-05 -0.000184192 -0.000149798 0.000218889 0.000312353 -0.000403595 -0.000947394 -4.72251e-05 0.00107795 0.000144726 -0.00180525 -0.00149709 0.00081768 0.00134697 -0.000966832 -0.00266311 -0.00125732 0.00114919 0.00127754 -0.000733459 -0.00192743 -0.000596931 0.00185 0.00293766 0.00202923 0.000777757 0.00108051 0.00308218 0.00520954 0.00585141 0.00483363 0.00338901 0.00291269 0.00376024 0.00506486 0.00555297 0.00456244 0.00247269 0.000341916 -0.000868066 -0.000888275 -0.000207998 0.000324957 5.22325e-05 -0.00113638 -0.00280056 -0.00422977 -0.0048154 -0.00432178 -0.00295991 -0.00125716 0.000185478 0.000934921 0.000863339 0.000146979 -0.000844051 -0.00170038 -0.0021184 -0.0019743 -0.00132648 -0.000368488 0.00064844 0.00148631 0.0019786 0.00205135 0.00172491 0.00109137 0.000282538 -0.000560082 -0.00131155 -0.0018791 -0.00221049 -0.00229279 -0.00214623 -0.00181246 -0.00134576 -0.000801585 -0.000230296 0.000323915 0.000829096 0.00126315 0.00161426 0.00188008 0.00206546 0.00217855 0.00223121 0.00223694 0.0022086 0.00215647 0.00209092 0.00202109 0.00195476 0.00189806 0.00185425 0.00182665 0.00181732 0.00182668 0.00185428 0.00189809 0.00195476 0.00202106 0.00209083 0.00215633 0.00220841 0.00223664 0.00223076 0.002178 0.002065 0.00187984 0.00161426 0.00126328 0.000829253 0.000324044 -0.000230089 -0.000801252 -0.00134543 -0.00181229 -0.00214616 -0.00229279 -0.00221065 -0.00187913 -0.00131123 -0.000559394 0.000284259 0.00109445 0.00172482 0.00203243 0.00190655 0.00130618 0.000302233 -0.000895701 -0.00194518 -0.00245926 -0.00216574 -0.0010908 0.00036515 0.00156077 0.00192979 0.00128776 -0.000112 -0.00179511 -0.00333581 -0.00443553 -0.0048354 -0.00432064 -0.00294575 -0.00122679 3.91469e-05 0.000309451 -0.000278682 -0.000976175 -0.000924139 0.00030055 0.00240007 0.00445862 0.00545619 0.00498813 0.00367943 0.00281068 0.00328294 0.00474825 0.00578635 0.00514464 0.00300829 0.00101131 0.000730875 0.00200464 0.00291786 0.00182346 -0.000604133 -0.00192373 -0.000746238 0.00124172 0.00111491 -0.00126586 -0.00265657 -0.000977923 0.00131191 0.000787597 -0.00150294 -0.00180454 0.000131697 0.00106168 -4.83381e-05 -0.000939178 -0.000403837 0.000301986 0.000212257 -0.000142575 -0.000169011 -1.62056e-05 2.82048e-05 2.72339e-05 0 0 
0 0 1.99222e-05 2.59916e-05 -4.30815e-06 -0.000147854 -0.000142917 0.000201353 0.000312353 -0.000433867 -0.00101285 5.10279e-05 0.00127174 -0.000104271 -0.00240602 -0.00142476 0.00159037 0.00125167 -0.0024252 -0.00367006 -0.000577427 0.00198329 0.000234485 -0.00310686 -0.00329246 -8.71066e-05 0.0025459 0.00187796 -0.000528707 -0.00115639 0.00131822 0.00484034 0.00648454 0.00546991 0.00364304 0.00339727 0.00539435 0.00813481 0.00944068 0.00830327 0.00554953 0.00301255 0.00208186 0.00277995 0.00392695 0.00408326 0.00252234 -0.000379136 -0.003455 -0.00548281 -0.0058441 -0.00475958 -0.00305064 -0.0016507 -0.00116582 -0.00166577 -0.00275559 -0.00382307 -0.004315 -0.00393547 -0.00271346 -0.000960699 0.000857451 0.00228795 0.00300934 0.00290696 0.00207244 0.000755121 -0.000723441 -0.00204972 -0.00298139 -0.00338451 -0.00323545 -0.00260844 -0.00164101 -0.000498029 0.0006583 0.00169364 0.0025088 0.00304909 0.00329739 0.00327445 0.00301735 0.00257906 0.00201356 0.00137442 0.000709201 5.61414e-05 -0.00055666 -0.00111159 -0.00159752 -0.00200997 -0.00235351 -0.00263064 -0.0028498 -0.00301728 -0.0031426 -0.00323173 -0.00329129 -0.00332434 -0.00333626 -0.0033243 -0.00329124 -0.00323169 -0.00314261 -0.00301738 -0.00284996 -0.00263087 -0.0023539 -0.00201059 -0.00159836 -0.00111234 -0.000557062 5.61179e-05 0.000709412 0.00137466 0.00201383 0.00257941 0.00301792 0.00327502 0.00329761 0.00304906 0.00250871 0.00169345 0.000658173 -0.000497715 -0.00164029 -0.00260634 -0.00323094 -0.00338256 -0.0030025 -0.00214153 -0.000966364 0.000269168 0.00130572 0.00197166 0.00222849 0.0021283 0.00169118 0.000834447 -0.000528572 -0.00222755 -0.00370998 -0.00427854 -0.00363941 -0.00230759 -0.00136679 -0.00167249 -0.00317764 -0.00498224 -0.00598376 -0.00549391 -0.00346606 -0.000478449 0.00239583 0.004009 0.00387338 0.00267468 0.0019325 0.00288147 0.00544712 0.00818559 0.00929125 0.00798971 0.00528472 0.00330799 0.00354368 0.00536166 0.00639726 0.00479079 0.00128993 -0.00119035 -0.000571923 0.00184407 0.00250479 -9.98359e-05 -0.00327302 -0.00309349 0.000210214 0.00193883 -0.000596278 -0.00365888 -0.00242929 0.00120829 0.00154424 -0.00143483 -0.00239641 -0.000108573 0.00125624 4.33597e-05 -0.00101429 -0.000437595 0.000313407 0.000213319 -0.000137193 -0.000170556 -3.50354e-05 2.44422e-05 0 0 
0 0 2.23203e-05 -2.04527e-05 -0.00012789 -0.000129165 0.000167846 0.000299216 -0.000403595 -0.00101285 9.76926e-05 0.00138323 -0.000315429 -0.00287191 -0.00121239 0.00233518 0.000829307 -0.00405328 -0.00412491 0.000751069 0.00239007 -0.00195997 -0.00570156 -0.00353024 0.00123117 0.00222556 -0.00123372 -0.00404335 -0.00221435 0.00262833 0.00575378 0.00484621 0.00216192 0.00166374 0.00484485 0.00952072 0.0121926 0.0112596 0.0081532 0.00578644 0.0060275 0.00834773 0.0104819 0.0102632 0.00715121 0.00245375 -0.00169557 -0.00369559 -0.00332503 -0.00168101 -0.000394519 -0.000689493 -0.00279047 -0.0059091 -0.00870519 -0.00994989 -0.00906641 -0.00632561 -0.00265715 0.00077642 0.00302355 0.00361911 0.00265862 0.000669071 -0.0016343 -0.00356616 -0.00464717 -0.00467268 -0.00371713 -0.00204881 -4.86292e-05 0.00189204 0.00344937 0.00441429 0.0046995 0.00433004 0.00341947 0.00213342 0.000654594 -0.000848046 -0.00223169 -0.0033958 -0.00428299 -0.00486895 -0.00516505 -0.00519741 -0.00500972 -0.00465022 -0.00417118 -0.00361578 -0.00302712 -0.00243997 -0.00187994 -0.00136154 -0.000900812 -0.000504225 -0.000177774 7.42225e-05 0.000257156 0.00036834 0.000405091 0.000368412 0.000257276 7.42659e-05 -0.00017782 -0.000504373 -0.000901083 -0.001362 -0.00188075 -0.00244113 -0.00302824 -0.00361641 -0.00417125 -0.00464991 -0.00500933 -0.00519696 -0.00516449 -0.00486818 -0.0042822 -0.00339546 -0.00223195 -0.000848361 0.000654451 0.00213322 0.00341962 0.00433079 0.00470201 0.00442057 0.00345477 0.00187171 -0.000156759 -0.00235606 -0.00436122 -0.00573106 -0.00599701 -0.00477483 -0.00202247 0.00170432 0.00517217 0.00684891 0.00567858 0.00182527 -0.00327128 -0.0076969 -0.0101252 -0.0103063 -0.00872706 -0.00606838 -0.00311404 -0.000902947 -0.000403778 -0.00167807 -0.0034566 -0.0038728 -0.00179271 0.00238838 0.00700598 0.010056 0.010309 0.00821352 0.0058607 0.00557542 0.00796061 0.0111181 0.0120648 0.00937112 0.00469584 0.00155971 0.00210667 0.00480086 0.00569438 0.00257243 -0.00223096 -0.00401849 -0.00122817 0.00219015 0.00120607 -0.00350553 -0.00565676 -0.00195913 0.00233765 0.000707857 -0.00412446 -0.00405388 0.000784805 0.00228538 -0.00121604 -0.00285275 -0.00032277 0.00135388 8.22563e-05 -0.00100406 -0.000386519 0.000304258 0.000147618 -0.000155683 -0.000103898 -3.32931e-05 0 0 
0 0 -1.47858e-05 -7.56157e-05 -0.000133963 0.000100335 0.000274781 -0.00030608 -0.000947394 5.10279e-05 0.00138323 -0.000388117 -0.00310207 -0.000985007 0.00287389 0.000185769 -0.00552344 -0.00388684 0.00239412 0.00191394 -0.00505997 -0.0075516 -0.00216762 0.00258553 -3.52933e-05 -0.00586914 -0.00671799 -0.00134113 0.00394303 0.00373927 -0.000352561 -0.00231938 0.00127572 0.00794038 0.0123551 0.0118052 0.00836308 0.0064369 0.00858528 0.0134864 0.0173733 0.0172268 0.0129597 0.00719209 0.00313793 0.00240251 0.00416588 0.00602153 0.0056517 0.00220915 -0.00332336 -0.00884767 -0.0123409 -0.0127918 -0.0105044 -0.0067549 -0.00312703 -0.000868834 -0.000520811 -0.00183889 -0.00401599 -0.00602243 -0.00697195 -0.0064196 -0.00442547 -0.0014889 0.00167386 0.00433414 0.00596037 0.00629847 0.0053795 0.00347455 0.00099248 -0.00161732 -0.0039574 -0.0057304 -0.00676629 -0.00702473 -0.00656383 -0.00551201 -0.0040343 -0.00231989 -0.000528055 0.00119761 0.00276024 0.00408978 0.00515284 0.00594582 0.00648637 0.00680418 0.00693296 0.00691321 0.00678968 0.00659256 0.00635843 0.00611753 0.00589264 0.00570059 0.00555643 0.00546509 0.00543561 0.00546526 0.0055566 0.00570066 0.00589255 0.00611729 0.00635793 0.00659165 0.00678828 0.00691165 0.00693197 0.0068041 0.00648689 0.00594648 0.00515353 0.00409069 0.00276123 0.00119868 -0.000527455 -0.00232021 -0.00403499 -0.00551219 -0.00656386 -0.00702492 -0.00676568 -0.00572726 -0.00394905 -0.00160739 0.00097677 0.0033576 0.00501589 0.00549346 0.00457525 0.00247731 -0.000117713 -0.00228108 -0.00329116 -0.00311399 -0.00241609 -0.00203083 -0.00221527 -0.00253294 -0.00251992 -0.0025495 -0.00375722 -0.00678768 -0.0106825 -0.0132387 -0.0126636 -0.00886123 -0.00329154 0.00204536 0.00540777 0.00589278 0.00409157 0.00221346 0.0028594 0.0069653 0.012784 0.0169949 0.0170832 0.0132338 0.00839864 0.00624991 0.00814468 0.0116089 0.012231 0.00786485 0.00119305 -0.00241393 -0.000413242 0.00374384 0.00398561 -0.00130578 -0.00663649 -0.00580252 -3.72217e-05 0.00255513 -0.00215307 -0.00748681 -0.00503467 0.00185218 0.0023163 -0.00389995 -0.00550644 0.000160785 0.00282929 -0.000994802 -0.00309676 -0.000406883 0.00136179 5.97544e-05 -0.00092913 -0.000317068 0.00024523 0.000114557 -5.63317e-05 -8.66907e-05 0 0 
0 0 -5.59745e-05 -5.04877e-05 5.39277e-05 0.000208522 -0.000195646 -0.000810628 -4.72251e-05 0.00127174 -0.000315429 -0.00310207 -0.000878742 0.00317005 -0.000364749 -0.00658139 -0.0032297 0.00383299 0.000522399 -0.00827402 -0.00783916 0.000378015 0.00266877 -0.00443521 -0.0103066 -0.00681431 0.000971434 0.00306771 -0.00214888 -0.007009 -0.0046234 0.00345856 0.00982892 0.00965482 0.00535154 0.00331281 0.0073283 0.0152702 0.0214852 0.0219079 0.0171804 0.0115918 0.00937237 0.0115559 0.0155997 0.0175404 0.014829 0.00782938 -0.000664676 -0.00724722 -0.00980131 -0.00845029 -0.00517888 -0.00260329 -0.00260226 -0.00549406 -0.0100522 -0.014239 -0.0161907 -0.0149926 -0.0109105 -0.00512955 0.000777593 0.00536552 0.00773274 0.00761804 0.00537995 0.00178574 -0.00220935 -0.00573879 -0.00813906 -0.00906268 -0.00847102 -0.00660418 -0.00385731 -0.000692278 0.00243657 0.00515765 0.00721832 0.00849348 0.0089533 0.00866488 0.00775098 0.00636503 0.00467577 0.00282319 0.000946892 -0.000860658 -0.00251945 -0.00399378 -0.005261 -0.00631552 -0.00716726 -0.00784319 -0.00835962 -0.00874553 -0.00902346 -0.0092087 -0.00933561 -0.00940799 -0.00943104 -0.00940786 -0.00933547 -0.0092087 -0.00902366 -0.00874603 -0.00836065 -0.007845 -0.00716937 -0.00631713 -0.00526145 -0.00399316 -0.00251844 -0.000859738 0.000948018 0.00282441 0.00467702 0.00636603 0.0077509 0.00866392 0.008953 0.0084939 0.00721785 0.00515753 0.00243994 -0.000682013 -0.00384196 -0.00661105 -0.00858593 -0.00946365 -0.00908631 -0.00745584 -0.00463988 -0.000747788 0.00395186 0.00864257 0.0117896 0.011476 0.00655206 -0.00212703 -0.0114674 -0.0177083 -0.0187413 -0.0153312 -0.0101372 -0.00566834 -0.00318856 -0.00308594 -0.00521763 -0.00837008 -0.00998562 -0.00757299 -0.000837515 0.00775066 0.0145965 0.0171751 0.0153033 0.0113297 0.00906255 0.0112065 0.0168551 0.0216647 0.0212225 0.0149717 0.00708393 0.00316546 0.00523761 0.00952044 0.00970293 0.00340884 -0.00459985 -0.00697167 -0.00214569 0.0030657 0.000979783 -0.00671847 -0.0101742 -0.00437211 0.00264496 0.000358259 -0.00779209 -0.00823839 0.000462868 0.00374452 -0.00323217 -0.00653747 -0.000383402 0.00310519 -0.000907946 -0.00309354 -0.000309651 0.0012686 -5.79935e-05 -0.000830705 -0.000190617 0.000266477 8.14657e-05 -4.13984e-05 0 0 
0 0 -3.7862e-05 4.7305e-05 0.000194705 -8.52894e-05 -0.000651368 -0.000169231 0.00107795 -0.000104271 -0.00287191 -0.000985007 0.00317005 -0.000568931 -0.00708864 -0.0025483 0.00477871 -0.00133968 -0.0108687 -0.0065495 0.00304872 0.00067746 -0.00988878 -0.0125073 -0.00413487 0.00255157 -0.00154768 -0.0100676 -0.0111781 -0.00297039 0.00561059 0.00627409 0.000478671 -0.00308501 0.00163408 0.0121334 0.020635 0.0217138 0.0168411 0.0123 0.0133033 0.019788 0.0269713 0.0293341 0.0246802 0.0153233 0.0061154 0.00114526 0.00135987 0.00448911 0.00672929 0.00511599 -0.000944803 -0.00968898 -0.0180294 -0.0230883 -0.0233431 -0.0190243 -0.011842 -0.00425317 0.00144609 0.00385568 0.00277836 -0.000828491 -0.00538551 -0.00922313 -0.0111544 -0.0106532 -0.00792809 -0.00367496 0.00116279 0.00563665 0.00900038 0.0108035 0.0109233 0.00949691 0.00686806 0.00348152 -0.000195572 -0.0037603 -0.00689707 -0.00938307 -0.0111175 -0.0120785 -0.0123281 -0.0119552 -0.0110835 -0.00985271 -0.00839597 -0.00682214 -0.00522241 -0.00367909 -0.00224562 -0.000945073 0.00019624 0.00115857 0.00194239 0.00254456 0.00297227 0.00322448 0.00331428 0.00322453 0.0029722 0.00254434 0.00194189 0.00115747 0.000194322 -0.000947825 -0.00224817 -0.00368039 -0.00522204 -0.006821 -0.00839458 -0.00985151 -0.0110823 -0.0119539 -0.0123266 -0.0120779 -0.0111186 -0.00938382 -0.00689611 -0.0037604 -0.000196783 0.00348453 0.00688014 0.00951749 0.0109286 0.0107034 0.00859051 0.0045898 -0.000851846 -0.00669928 -0.0113356 -0.0129828 -0.0105645 -0.00462545 0.00237025 0.00716452 0.00757035 0.00385163 -0.00194695 -0.00792649 -0.0136651 -0.0192567 -0.0234851 -0.0238119 -0.0187338 -0.00979772 -0.000797803 0.00493854 0.00631119 0.00425213 0.00128023 0.000875897 0.00564891 0.0149378 0.0243972 0.028942 0.0264773 0.0193793 0.0129942 0.0119533 0.0164564 0.0214238 0.0204585 0.0119684 0.00144513 -0.00322164 0.000452146 0.00631015 0.00562656 -0.00298107 -0.0111439 -0.00994764 -0.00148757 0.00256924 -0.00404103 -0.012334 -0.00976117 0.000660746 0.00297669 -0.0065375 -0.0108048 -0.00135541 0.00470934 -0.00255005 -0.00705861 -0.000610205 0.00310226 -0.000987769 -0.00284121 -0.000112906 0.00103912 -0.000176137 -0.000601611 -5.46178e-05 9.69043e-05 7.50381e-05 0 0 