<?xml version="1.0"?>
<VTKFile type="ImageData" version="0.1" byte_order="LittleEndian">
<ImageData WholeExtent="0 199 0 199 0 0" Origin="0 0 0" Spacing="15 15 0">
<Piece Extent="0 199 0 199 0 0">
<PointData Scalars="Amplitude">
<DataArray type="Float32" Name="Amplitude" format="ascii">
0 0 0 0 0 0 0 0 0 0 0 0 0 0 0 0 0 0 0 0 0 0 0 0 0 0 0 0 0 0 0 0 0 0 0 0 0 0 0 0 0 0 0 0 0 0 0 0 0 0 0 0 0 0 0 0 0 0 0 0 0 0 0 0 0 0 0 0 0 0 0 0 0 0 0 0 0 0 0 0 0 0 0 0 0 0 0 0 0 0 0 0 0 0 0 0 0 0 0 0 0 0 0 0 0 0 0 0 0 0 0 0 0 0 0 0 0 0 0 0 0 0 0 0 0 0 0 0 0 0 0 0 0 0 0 0 0 0 0 0 0 0 0 0 0 0 0 0 0 0 0 0 0 0 0 0 0 0 0 0 0 0 0 0 0 0 0 0 0 0 0 0 0 0 0 0 0 0 0 0 0 0 0 0 0 0 0 0 0 0 0 0 0 0 0 0 0 0 0 0 
0 0 0 0 0 0 0 0 0 0 0 0 0 0 0 0 0 0 0 0 0 0 0 0 0 0 0 0 0 0 0 0 0 0 0 0 0 0 0 0 0 0 0 0 0 0 0 0 0 0 0 0 0 0 0 0 0 0 0 0 0 0 0 0 0 0 0 0 0 0 0 0 0 0 0 0 0 0 0 0 0 0 0 0 0 0 0 0 0 0 0 0 0 0 0 0 0 0 0 0 0 0 0 0 0 0 0 0 0 0 0 0 0 0 0 0 0 0 0 0 0 0 0 0 0 0 0 0 0 0 0 0 0 0 0 0 0 0 0 0 0 0 0 0 0 0 0 0 0 0 0 0 0 0 0 0 0 0 0 0 0 0 0 0 0 0 0 0 0 0 0 0 0 0 0 0 0 0 0 0 0 0 0 0 0 0 0 0 0 0 0 0 0 0 0 0 0 0 0 0 
0 0 -1.03224e-33 5.34511e-33 5.43108e-32 5.56708e-31 8.40291e-31 -1.74888e-29 -1.27475e-28 -1.07122e-28 3.34581e-27 2.05832e-26 1.94494e-26 -3.91384e-25 -2.36794e-24 -3.61908e-24 2.69866e-23 1.89634e-22 4.39839e-22 -8.67247e-22 -1.01365e-20 -3.32304e-20 -1.65204e-20 3.30907e-19 1.61335e-18 3.19474e-18 -3.85642e-18 -5.00934e-17 -1.73531e-16 -2.37159e-16 6.75024e-16 5.07015e-15 1.51849e-14 1.91608e-14 -4.82095e-14 -3.54375e-13 -1.07935e-12 -1.75383e-12 6.20812e-13 1.4458e-11 5.32801e-11 1.19154e-10 1.46615e-10 -1.09932e-10 -1.20193e-09 -3.9239e-09 -8.60975e-09 -1.31411e-08 -9.25276e-09 2.20817e-08 1.12845e-07 3.00825e-07 6.03235e-07 9.61869e-07 1.15848e-06 7.16115e-07 -1.17355e-06 -5.63219e-06 -1.39092e-05 -2.69629e-05 -4.47874e-05 -6.5535e-05 -8.45752e-05 -9.36979e-05 -8.07161e-05 -2.96874e-05 7.81e-05 0.000262387 0.000541595 0.000930192 0.00143614 0.00205885 0.00278798 0.00360333 0.00447577 0.00536933 0.00624381 0.00705803 0.00777302 0.00835479 0.00877659 0.0090206 0.00907829 0.00895066 0.00864713 0.00818457 0.00758542 0.00687617 0.00608561 0.00524316 0.0043775 0.00351585 0.00268295 0.00190071 0.00118793 0.000560385 3.08047e-05 -0.00039087 -0.000697103 -0.000882845 -0.000945101 -0.000882845 -0.000697103 -0.00039087 3.08047e-05 0.000560385 0.00118793 0.00190071 0.00268295 0.00351585 0.0043775 0.00524316 0.00608561 0.00687617 0.00758542 0.00818457 0.00864713 0.00895066 0.00907829 0.0090206 0.00877659 0.00835479 0.00777302 0.00705803 0.00624381 0.00536933 0.00447577 0.00360333 0.00278798 0.00205885 0.00143614 0.000930192 0.000541595 0.000262387 7.81e-05 -2.96874e-05 -8.07161e-05 -9.36979e-05 -8.45752e-05 -6.5535e-05 -4.47874e-05 -2.69629e-05 -1.39092e-05 -5.63219e-06 -1.17355e-06 7.16115e-07 1.15848e-06 9.61869e-07 6.03234e-07 3.00825e-07 1.12844e-07 2.20816e-08 -9.25282e-09 -1.31411e-08 -8.60975e-09 -3.9239e-09 -1.20193e-09 -1.09933e-10 1.46615e-10 1.19154e-10 5.328e-11 1.4458e-11 6.20823e-13 -1.75383e-12 -1.07935e-12 -3.54376e-13 -4.82097e-14 1.91608e-14 1.51849e-14 5.07014e-15 6.7501e-16 -2.37185e-16 -1.73511e-16 -4.97504e-17 -3.8354e-18 3.16319e-18 1.59873e-18 3.27964e-19 -1.64105e-20 -3.29606e-20 -1.00534e-20 -8.59566e-22 4.36581e-22 1.88178e-22 2.67723e-23 -3.59477e-24 -2.35065e-24 -3.88454e-25 1.93335e-26 2.04385e-26 3.32176e-27 -1.0651e-28 -1.26602e-28 -1.73671e-29 8.35775e-31 5.67586e-31 1.23072e-31 8.12469e-33 0 0 
0 0 5.34511e-33 1.44684e-31 7.46549e-31 2.35978e-30 -1.76232e-29 -1.90616e-28 -4.1981e-28 3.97864e-27 3.38339e-26 6.71756e-26 -5.13539e-25 -4.16065e-24 -9.56257e-24 3.62093e-23 3.49286e-22 1.02159e-21 -8.54434e-22 -1.9165e-20 -7.39873e-20 -7.31644e-20 6.11914e-19 3.52862e-18 8.11086e-18 -4.48829e-18 -1.06074e-16 -4.03497e-16 -6.34313e-16 1.28983e-15 1.14784e-14 3.62451e-14 4.9112e-14 -1.07057e-13 -8.47329e-13 -2.6256e-12 -4.24361e-12 1.99127e-12 3.75605e-11 1.3581e-10 2.94957e-10 3.2403e-10 -4.55496e-10 -3.50422e-09 -1.07426e-08 -2.23017e-08 -3.06081e-08 -1.00773e-08 9.42543e-08 3.67814e-07 8.95602e-07 1.6709e-06 2.422e-06 2.3664e-06 -3.91198e-08 -7.20823e-06 -2.21841e-05 -4.78242e-05 -8.52595e-05 -0.000131657 -0.000177566 -0.000204398 -0.000182777 -7.25185e-05 0.000175191 0.000613235 0.00129195 0.00225127 0.00351285 0.00507352 0.00690121 0.00893425 0.0110842 0.0132422 0.0152875 0.0170978 0.0185592 0.0195753 0.0200743 0.0200131 0.019379 0.0181887 0.0164847 0.0143303 0.0118043 0.00899441 0.00599187 0.0028864 -0.000237917 -0.00330556 -0.00625126 -0.00902057 -0.0115701 -0.0138665 -0.0158856 -0.0176104 -0.0190301 -0.0201381 -0.020931 -0.0214072 -0.0215659 -0.0214072 -0.020931 -0.0201381 -0.0190301 -0.0176104 -0.0158856 -0.0138665 -0.0115701 -0.00902057 -0.00625126 -0.00330556 -0.000237917 0.0028864 0.00599187 0.00899441 0.0118043 0.0143303 0.0164847 0.0181887 0.019379 0.0200131 0.0200743 0.0195753 0.0185592 0.0170978 0.0152875 0.0132422 0.0110842 0.00893425 0.00690121 0.00507352 0.00351285 0.00225127 0.00129195 0.000613235 0.000175191 -7.25185e-05 -0.000182777 -0.000204398 -0.000177566 -0.000131657 -8.52595e-05 -4.78242e-05 -2.21841e-05 -7.20823e-06 -3.91198e-08 2.3664e-06 2.422e-06 1.6709e-06 8.95602e-07 3.67814e-07 9.42541e-08 -1.00774e-08 -3.0608e-08 -2.23016e-08 -1.07426e-08 -3.50422e-09 -4.55496e-10 3.2403e-10 2.94956e-10 1.3581e-10 3.75606e-11 1.99128e-12 -4.24362e-12 -2.6256e-12 -8.4733e-13 -1.07057e-13 4.91118e-14 3.6245e-14 1.14783e-14 1.28986e-15 -6.33535e-16 -3.99915e-16 -1.05106e-16 -4.44843e-18 8.03987e-18 3.49806e-18 6.06537e-19 -7.26447e-20 -7.34005e-20 -1.90101e-20 -8.4604e-22 1.01407e-21 3.46631e-22 3.59184e-23 -9.49652e-24 -4.13045e-24 -5.0968e-25 6.67331e-26 3.35966e-26 3.94996e-27 -4.17083e-28 -1.89313e-28 -1.74828e-29 2.44517e-30 8.46712e-31 1.28487e-31 0 0 
0 0 5.43108e-32 7.46549e-31 3.26108e-30 2.52409e-30 -1.17182e-28 -7.40137e-28 6.89055e-29 2.40282e-26 1.24187e-25 -6.35325e-27 -3.1111e-24 -1.53795e-23 -9.88621e-24 2.51984e-22 1.37317e-21 2.16769e-21 -1.16079e-20 -8.44411e-20 -2.16009e-19 1.54634e-19 3.36262e-18 1.26702e-17 1.59188e-17 -7.13599e-17 -4.71763e-16 -1.25884e-15 -5.77831e-16 9.82502e-15 4.663e-14 1.05087e-13 2.65167e-14 -7.80071e-13 -3.41705e-12 -7.8321e-12 -6.08947e-12 3.1731e-11 1.68004e-10 4.5442e-10 7.23876e-10 9.06287e-11 -3.74967e-09 -1.4598e-08 -3.50342e-08 -5.73822e-08 -4.54959e-08 8.94934e-08 5.01994e-07 1.37436e-06 2.77097e-06 4.32974e-06 4.78735e-06 1.44788e-06 -1.01338e-05 -3.5826e-05 -8.1457e-05 -0.000149844 -0.00023629 -0.000323088 -0.000374162 -0.000331469 -0.000114848 0.000373321 0.00123822 0.00257811 0.00446718 0.00693846 0.00996979 0.0134761 0.0173089 0.0212644 0.0250991 0.0285507 0.0313614 0.0333008 0.034185 0.0338915 0.0323661 0.0296233 0.0257412 0.0208516 0.0151262 0.008761 0.00196387 -0.00506051 -0.0121208 -0.0190466 -0.0256945 -0.0319496 -0.0377259 -0.0429641 -0.0476288 -0.0517042 -0.0551894 -0.0580941 -0.0604347 -0.0622295 -0.0634966 -0.0642503 -0.0645003 -0.0642503 -0.0634966 -0.0622295 -0.0604347 -0.0580941 -0.0551894 -0.0517042 -0.0476288 -0.0429641 -0.0377259 -0.0319496 -0.0256945 -0.0190466 -0.0121208 -0.00506051 0.00196387 0.008761 0.0151262 0.0208516 0.0257412 0.0296233 0.0323661 0.0338915 0.034185 0.0333008 0.0313614 0.0285507 0.0250991 0.0212644 0.0173089 0.0134761 0.00996979 0.00693846 0.00446718 0.00257811 0.00123822 0.000373321 -0.000114848 -0.000331469 -0.000374162 -0.000323088 -0.00023629 -0.000149844 -8.1457e-05 -3.5826e-05 -1.01338e-05 1.44788e-06 4.78735e-06 4.32975e-06 2.77097e-06 1.37436e-06 5.01993e-07 8.94932e-08 -4.54957e-08 -5.73821e-08 -3.50342e-08 -1.4598e-08 -3.74967e-09 9.06287e-11 7.23874e-10 4.5442e-10 1.68005e-10 3.1731e-11 -6.08947e-12 -7.8321e-12 -3.41705e-12 -7.80071e-13 2.65157e-14 1.05086e-13 4.66298e-14 9.82552e-15 -5.74229e-16 -1.24817e-15 -4.67359e-16 -7.06996e-17 1.57833e-17 1.25614e-17 3.3337e-18 1.53036e-19 -2.14333e-19 -8.37686e-20 -1.15115e-20 2.15265e-21 1.36287e-21 2.5004e-22 -9.83344e-24 -1.52693e-23 -3.08824e-24 -6.1476e-27 1.23325e-25 2.38578e-26 6.76083e-29 -7.35108e-28 -1.16288e-28 2.79357e-30 2.4475e-30 5.93444e-31 0 0 
0 0 5.56708e-31 2.35978e-30 2.52409e-30 -1.20267e-28 -7.62372e-28 3.17284e-28 2.79631e-26 1.3936e-25 -7.88869e-26 -4.12595e-24 -1.90492e-23 -1.92006e-24 3.88428e-22 1.91431e-21 2.12856e-21 -2.20326e-20 -1.34675e-19 -2.88168e-19 5.68805e-19 6.26935e-18 2.03004e-17 1.35567e-17 -1.71798e-16 -8.78082e-16 -1.90642e-15 9.35335e-16 2.28764e-14 8.70025e-14 1.50699e-13 -1.54897e-13 -1.94627e-12 -6.71761e-12 -1.18845e-11 3.33501e-12 1.00876e-10 3.7976e-10 8.26395e-10 8.07042e-10 -1.91548e-09 -1.20411e-08 -3.50486e-08 -6.78749e-08 -7.56577e-08 4.60767e-08 5.04674e-07 1.58302e-06 3.45237e-06 5.70994e-06 6.58979e-06 1.98801e-06 -1.52337e-05 -5.48343e-05 -0.000126611 -0.00023474 -0.0003688 -0.000492485 -0.000532424 -0.000370774 0.000154363 0.00123751 0.00308221 0.00586703 0.00970606 0.014611 0.0204623 0.0269973 0.0338169 0.0404151 0.0462234 0.050667 0.0532237 0.0534775 0.0511577 0.0461621 0.0385615 0.0285873 0.0166018 0.00306202 -0.0115208 -0.0266239 -0.0417485 -0.0564479 -0.0703502 -0.0831685 -0.0947046 -0.104845 -0.113556 -0.120864 -0.126852 -0.131637 -0.135361 -0.13818 -0.140249 -0.141716 -0.14272 -0.143373 -0.14377 -0.143982 -0.144047 -0.143982 -0.14377 -0.143373 -0.14272 -0.141716 -0.140249 -0.13818 -0.135361 -0.131637 -0.126852 -0.120864 -0.113556 -0.104845 -0.0947046 -0.0831685 -0.0703502 -0.0564479 -0.0417485 -0.0266239 -0.0115208 0.00306202 0.0166018 0.0285873 0.0385615 0.0461621 0.0511577 0.0534775 0.0532237 0.050667 0.0462234 0.0404151 0.0338169 0.0269973 0.0204623 0.014611 0.00970606 0.00586703 0.00308221 0.00123751 0.000154363 -0.000370774 -0.000532424 -0.000492485 -0.0003688 -0.00023474 -0.000126611 -5.48343e-05 -1.52338e-05 1.988e-06 6.5898e-06 5.70993e-06 3.45236e-06 1.58301e-06 5.04673e-07 4.60769e-08 -7.56576e-08 -6.78748e-08 -3.50486e-08 -1.20411e-08 -1.91548e-09 8.07039e-10 8.26394e-10 3.79759e-10 1.00876e-10 3.33501e-12 -1.18845e-11 -6.7176e-12 -1.94627e-12 -1.54899e-13 1.507e-13 8.70088e-14 2.28922e-14 9.46449e-16 -1.8867e-15 -8.69954e-16 -1.70237e-16 1.34591e-17 2.01336e-17 6.21727e-18 5.63683e-19 -2.86027e-19 -1.33632e-19 -2.18558e-20 2.11498e-21 1.90025e-21 3.85496e-22 -1.93299e-24 -1.89149e-23 -4.09609e-24 -7.81442e-26 1.38404e-25 2.7767e-26 3.14353e-28 -7.56998e-28 -1.21655e-28 -1.84704e-29 8.8014e-31 0 0 
0 0 8.40291e-31 -1.76232e-29 -1.17182e-28 -7.62372e-28 3.93932e-28 3.04433e-26 1.52015e-25 -1.38289e-25 -5.09748e-24 -2.27821e-23 7.81539e-24 5.50331e-22 2.55174e-21 1.8046e-21 -3.69084e-20 -2.03129e-19 -3.64397e-19 1.30449e-18 1.08494e-17 3.10263e-17 1.7514e-18 -3.56895e-16 -1.54633e-15 -2.70694e-15 4.72073e-15 4.73395e-14 1.52545e-13 1.88425e-13 -6.16194e-13 -4.22635e-12 -1.21819e-11 -1.52999e-11 3.35786e-11 2.51408e-10 7.67182e-10 1.31962e-09 1.52163e-10 -7.69292e-09 -3.06341e-08 -7.32422e-08 -1.10707e-07 -3.63325e-08 4.05163e-07 1.6312e-06 4.03016e-06 7.34376e-06 9.44185e-06 4.58457e-06 -1.81488e-05 -7.47825e-05 -0.000182547 -0.000349944 -0.000559691 -0.000745898 -0.000770276 -0.000405265 0.000666233 0.00282653 0.00647058 0.0119289 0.0193776 0.0287527 0.0396899 0.0515051 0.0632256 0.0736755 0.0815963 0.0857938 0.0852796 0.0793913 0.0678719 0.050897 0.0290532 0.0032711 -0.0252743 -0.0552775 -0.0854167 -0.114461 -0.141348 -0.16524 -0.185557 -0.20197 -0.214394 -0.222948 -0.227919 -0.229713 -0.228821 -0.225765 -0.221083 -0.215289 -0.208862 -0.202234 -0.195778 -0.189811 -0.184597 -0.180336 -0.177185 -0.175253 -0.174602 -0.175253 -0.177185 -0.180336 -0.184597 -0.189811 -0.195778 -0.202234 -0.208862 -0.215289 -0.221083 -0.225765 -0.228821 -0.229713 -0.227919 -0.222948 -0.214394 -0.20197 -0.185557 -0.16524 -0.141348 -0.114461 -0.0854167 -0.0552775 -0.0252743 0.0032711 0.0290532 0.050897 0.0678719 0.0793913 0.0852796 0.0857938 0.0815963 0.0736755 0.0632256 0.0515051 0.0396899 0.0287527 0.0193776 0.0119289 0.00647058 0.00282653 0.000666233 -0.000405265 -0.000770276 -0.000745898 -0.000559691 -0.000349944 -0.000182547 -7.47825e-05 -1.81488e-05 4.58454e-06 9.44183e-06 7.34374e-06 4.03016e-06 1.6312e-06 4.05163e-07 -3.63322e-08 -1.10707e-07 -7.32421e-08 -3.06341e-08 -7.69291e-09 1.52162e-10 1.31962e-09 7.6718e-10 2.51408e-10 3.35786e-11 -1.52999e-11 -1.21819e-11 -4.22636e-12 -6.16184e-13 1.88446e-13 1.52518e-13 4.70591e-14 4.68957e-15 -2.68213e-15 -1.53281e-15 -3.53781e-16 1.77501e-18 3.07811e-17 1.07619e-17 1.29337e-18 -3.6181e-19 -2.01592e-19 -3.66198e-20 1.79478e-21 2.53334e-21 5.46248e-22 7.72529e-24 -2.26237e-23 -5.06105e-24 -1.37116e-25 1.50982e-25 3.02321e-26 3.88293e-28 -7.81536e-28 -2.03679e-28 -1.98556e-29 0 0 
0 0 -1.74888e-29 -1.90616e-28 -7.40137e-28 3.17284e-28 3.04433e-26 1.5641e-25 -1.73864e-25 -5.77566e-24 -2.55778e-23 1.82106e-23 7.10264e-22 3.16847e-21 1.0548e-21 -5.53243e-20 -2.83333e-19 -4.18315e-19 2.44449e-18 1.72074e-17 4.38284e-17 -2.82894e-17 -6.60522e-16 -2.521e-15 -3.40198e-15 1.26121e-14 8.84769e-14 2.45781e-13 1.71219e-13 -1.59266e-12 -8.17303e-12 -1.99038e-11 -1.32314e-11 1.06501e-10 5.35124e-10 1.36932e-09 1.68776e-09 -2.56988e-09 -2.09895e-08 -6.58453e-08 -1.30565e-07 -1.30479e-07 1.98684e-07 1.38656e-06 4.11071e-06 8.52572e-06 1.26274e-05 9.52189e-06 -1.56635e-05 -8.70032e-05 -0.000233248 -0.000472825 -0.000784911 -0.00106735 -0.00108923 -0.000453336 0.00141074 0.00520368 0.0116527 0.021353 0.0345778 0.0510968 0.0700512 0.0899233 0.108628 0.123723 0.132699 0.133323 0.123955 0.103791 0.0729977 0.0327133 -0.0150711 -0.0677362 -0.122311 -0.175772 -0.225316 -0.26858 -0.303788 -0.329826 -0.346238 -0.353162 -0.351244 -0.341504 -0.325203 -0.303735 -0.278509 -0.250872 -0.222046 -0.193098 -0.164917 -0.138212 -0.113529 -0.0912694 -0.0717054 -0.0550155 -0.0413021 -0.0306188 -0.022988 -0.0184097 -0.0168857 -0.0184097 -0.022988 -0.0306188 -0.0413021 -0.0550155 -0.0717054 -0.0912694 -0.113529 -0.138212 -0.164917 -0.193098 -0.222046 -0.250872 -0.278509 -0.303735 -0.325203 -0.341504 -0.351244 -0.353162 -0.346238 -0.329826 -0.303788 -0.26858 -0.225316 -0.175772 -0.122311 -0.0677362 -0.0150711 0.0327133 0.0729977 0.103791 0.123955 0.133323 0.132699 0.123723 0.108628 0.0899233 0.0700512 0.0510968 0.0345778 0.021353 0.0116527 0.00520368 0.00141074 -0.000453336 -0.00108923 -0.00106736 -0.00078491 -0.000472825 -0.000233248 -8.70031e-05 -1.56636e-05 9.52188e-06 1.26274e-05 8.5257e-06 4.11071e-06 1.38656e-06 1.98684e-07 -1.30478e-07 -1.30565e-07 -6.58452e-08 -2.09895e-08 -2.56987e-09 1.68776e-09 1.36932e-09 5.35124e-10 1.06501e-10 -1.32313e-11 -1.99038e-11 -8.17301e-12 -1.59274e-12 1.70571e-13 2.43845e-13 8.7684e-14 1.24976e-14 -3.3741e-15 -2.49993e-15 -6.54956e-16 -2.79927e-17 4.3495e-17 1.70725e-17 2.4244e-18 -4.15497e-19 -2.81234e-19 -5.49008e-20 1.05185e-21 3.14599e-21 7.05071e-22 1.80416e-23 -2.54019e-23 -5.73484e-24 -1.72447e-25 1.55354e-25 3.0212e-26 2.62216e-28 -4.28371e-28 -1.46331e-28 0 0 
0 0 -1.27475e-28 -4.1981e-28 6.89055e-29 2.79631e-26 1.52015e-25 -1.73864e-25 -6.01972e-24 -2.70722e-23 2.62452e-23 8.3988e-22 3.6836e-21 3.50051e-23 -7.51532e-20 -3.6739e-19 -4.36997e-19 3.98114e-18 2.5188e-17 5.7472e-17 -8.41136e-17 -1.1101e-15 -3.82307e-15 -3.63153e-15 2.68151e-14 1.52164e-13 3.66369e-13 2.98285e-14 -3.3879e-12 -1.43863e-11 -2.93922e-11 2.42268e-12 2.52772e-10 1.01131e-09 2.17493e-09 1.39136e-09 -9.55653e-09 -4.69831e-08 -1.23545e-07 -1.96234e-07 -4.61907e-08 8.87647e-07 3.54528e-06 8.70782e-06 1.5183e-05 1.61185e-05 -6.15975e-06 -8.41209e-05 -0.000261909 -0.000576452 -0.00101436 -0.00144199 -0.00151834 -0.000616587 0.00220619 0.00814846 0.0184837 0.0342625 0.0559398 0.0830114 0.113758 0.145195 0.173276 0.193356 0.200843 0.191916 0.164177 0.11712 0.0523112 -0.0267286 -0.114921 -0.206231 -0.294348 -0.373359 -0.438321 -0.485634 -0.513258 -0.5207 -0.508863 -0.479777 -0.436263 -0.381595 -0.319189 -0.252329 -0.183961 -0.116594 -0.0522129 0.00772927 0.0622638 0.110856 0.153338 0.189813 0.220586 0.246091 0.266832 0.283323 0.296058 0.305473 0.311929 0.315693 0.316929 0.315693 0.311929 0.305473 0.296058 0.283323 0.266832 0.246091 0.220586 0.189813 0.153338 0.110856 0.0622638 0.00772927 -0.0522129 -0.116594 -0.183961 -0.252329 -0.319189 -0.381595 -0.436263 -0.479777 -0.508863 -0.5207 -0.513258 -0.485634 -0.438321 -0.373359 -0.294348 -0.206231 -0.114921 -0.0267286 0.0523112 0.11712 0.164177 0.191916 0.200843 0.193356 0.173276 0.145195 0.113758 0.0830114 0.0559398 0.0342625 0.0184837 0.00814846 0.00220619 -0.000616587 -0.00151834 -0.00144199 -0.00101436 -0.000576451 -0.000261909 -8.41208e-05 -6.15972e-06 1.61185e-05 1.5183e-05 8.7078e-06 3.54528e-06 8.87649e-07 -4.61899e-08 -1.96234e-07 -1.23545e-07 -4.6983e-08 -9.5565e-09 1.39136e-09 2.17493e-09 1.01131e-09 2.52772e-10 2.4227e-12 -2.93924e-11 -1.43874e-11 -3.39076e-12 2.69545e-14 3.62823e-13 1.50801e-13 2.65755e-14 -3.60479e-15 -3.79229e-15 -1.10102e-15 -8.33412e-17 5.70503e-17 2.4995e-17 3.94933e-18 -4.34235e-19 -3.64717e-19 -7.45881e-20 4.05715e-23 3.65783e-21 8.33817e-22 2.60176e-23 -2.6888e-23 -5.97759e-24 -1.72488e-25 1.50953e-25 2.83427e-26 4.84326e-27 -9.21834e-29 0 0 
0 0 -1.07122e-28 3.97864e-27 2.40282e-26 1.3936e-25 -1.38289e-25 -5.77566e-24 -2.70722e-23 2.92716e-23 9.12658e-22 4.02511e-21 -9.47541e-22 -9.31562e-20 -4.44637e-19 -4.19475e-19 5.78165e-18 3.41876e-17 7.03439e-17 -1.69438e-16 -1.71156e-15 -5.4133e-15 -2.94236e-15 4.94956e-14 2.43219e-13 5.07702e-13 -3.28969e-13 -6.34573e-12 -2.33567e-11 -3.91077e-11 4.36198e-11 5.09954e-10 1.73115e-09 3.06575e-09 -5.25986e-10 -2.39416e-08 -9.15193e-08 -2.05077e-07 -2.34759e-07 2.96832e-07 2.4345e-06 7.57924e-06 1.59177e-05 2.22745e-05 8.88682e-06 -6.26757e-05 -0.000253105 -0.000627002 -0.00119792 -0.0018253 -0.00206986 -0.0010431 0.00268188 0.0110139 0.0260715 0.049677 0.0826801 0.124262 0.171426 0.218872 0.259391 0.284783 0.287155 0.260364 0.201279 0.110607 -0.00690591 -0.142937 -0.28662 -0.425941 -0.549237 -0.646558 -0.710684 -0.737682 -0.727018 -0.681225 -0.605262 -0.505752 -0.390121 -0.26584 -0.139795 -0.0178648 0.0953549 0.196626 0.284004 0.356718 0.414926 0.459532 0.491914 0.513763 0.526893 0.533124 0.534175 0.531599 0.526772 0.520844 0.514772 0.509309 0.505012 0.502279 0.501344 0.502279 0.505012 0.509309 0.514772 0.520844 0.526772 0.531599 0.534175 0.533124 0.526893 0.513763 0.491914 0.459532 0.414926 0.356718 0.284004 0.196626 0.0953549 -0.0178648 -0.139795 -0.26584 -0.390121 -0.505752 -0.605262 -0.681225 -0.727018 -0.737682 -0.710684 -0.646558 -0.549237 -0.425941 -0.28662 -0.142937 -0.00690591 0.110607 0.201279 0.260364 0.287155 0.284783 0.259391 0.218872 0.171426 0.124262 0.0826801 0.049677 0.0260715 0.0110139 0.00268188 -0.0010431 -0.00206986 -0.0018253 -0.00119792 -0.000627002 -0.000253104 -6.26758e-05 8.88673e-06 2.22745e-05 1.59177e-05 7.57925e-06 2.43451e-06 2.96832e-07 -2.34759e-07 -2.05077e-07 -9.15192e-08 -2.39415e-08 -5.25972e-10 3.06575e-09 1.73115e-09 5.09953e-10 4.36181e-11 -3.91113e-11 -2.33554e-11 -6.3114e-12 -3.27645e-13 5.03238e-13 2.41143e-13 4.90695e-14 -2.92485e-15 -5.37112e-15 -1.69793e-15 -1.67971e-16 6.98452e-17 3.3931e-17 5.73647e-18 -4.17037e-19 -4.41453e-19 -9.2466e-20 -9.3411e-22 3.99728e-21 9.06142e-22 2.90246e-23 -2.68894e-23 -5.7356e-24 -1.36688e-25 1.43273e-25 4.02066e-26 4.35028e-27 0 0 
0 0 3.34581e-27 3.38339e-26 1.24187e-25 -7.88869e-26 -5.09748e-24 -2.55778e-23 2.62452e-23 9.12658e-22 4.14459e-21 -1.55109e-21 -1.05808e-19 -5.03936e-19 -3.7948e-19 7.58718e-18 4.31862e-17 8.09823e-17 -2.80468e-16 -2.43669e-15 -7.18467e-15 -9.33475e-16 8.19755e-14 3.63163e-13 6.55393e-13 -1.01014e-12 -1.07906e-11 -3.53161e-11 -4.63529e-11 1.25209e-10 9.1665e-10 2.71816e-09 3.77599e-09 -5.45186e-09 -4.94875e-08 -1.59473e-07 -3.02016e-07 -1.74589e-07 1.13891e-06 5.36039e-06 1.41215e-05 2.52529e-05 2.44725e-05 -2.69917e-05 -0.00020195 -0.000596863 -0.00127459 -0.002133 -0.0026918 -0.00183428 0.00239894 0.0128183 0.0327465 0.0652534 0.112028 0.172129 0.240983 0.310046 0.367425 0.39951 0.393375 0.339481 0.234006 0.0802858 -0.111063 -0.323337 -0.536037 -0.727823 -0.879474 -0.976384 -1.01017 -0.979258 -0.888469 -0.747769 -0.570576 -0.371922 -0.166621 0.0320252 0.213288 0.369451 0.495912 0.590926 0.655158 0.691057 0.702301 0.693231 0.668366 0.632087 0.588364 0.540624 0.491695 0.443817 0.398667 0.357453 0.320987 0.289779 0.26411 0.24412 0.229843 0.221281 0.218435 0.221281 0.229843 0.24412 0.26411 0.289779 0.320987 0.357453 0.398667 0.443817 0.491695 0.540624 0.588364 0.632087 0.668366 0.693231 0.702301 0.691057 0.655158 0.590926 0.495912 0.369451 0.213288 0.0320252 -0.166621 -0.371922 -0.570576 -0.747769 -0.888469 -0.979258 -1.01017 -0.976384 -0.879474 -0.727823 -0.536037 -0.323337 -0.111063 0.0802858 0.234006 0.339481 0.393375 0.39951 0.367425 0.310046 0.240983 0.172129 0.112028 0.0652533 0.0327465 0.0128183 0.00239894 -0.00183428 -0.0026918 -0.002133 -0.00127459 -0.000596863 -0.00020195 -2.69918e-05 2.44724e-05 2.52529e-05 1.41216e-05 5.3604e-06 1.1389e-06 -1.74589e-07 -3.02016e-07 -1.59474e-07 -4.94875e-08 -5.45187e-09 3.77598e-09 2.71816e-09 9.16645e-10 1.25216e-10 -4.62776e-11 -3.50649e-11 -1.06984e-11 -1.00101e-12 6.50091e-13 3.60183e-13 8.12913e-14 -9.36121e-16 -7.13033e-15 -2.41773e-15 -2.7813e-16 8.04269e-17 4.28679e-17 7.529e-18 -3.77495e-19 -5.00376e-19 -1.05034e-19 -1.53308e-21 4.11623e-21 9.06203e-22 2.60237e-23 -2.54057e-23 -5.05843e-24 -6.91499e-26 7.03611e-26 2.60907e-26 0 0 
0 0 2.05832e-26 6.71756e-26 -6.35325e-27 -4.12595e-24 -2.27821e-23 1.82106e-23 8.3988e-22 4.02511e-21 -1.55109e-21 -1.1037e-19 -5.36146e-19 -3.40503e-19 9.06386e-18 5.09198e-17 8.85742e-17 -4.03887e-16 -3.21755e-15 -8.97563e-15 2.5383e-15 1.23803e-13 5.0837e-13 7.88345e-13 -2.10591e-12 -1.69504e-11 -5.0127e-11 -4.75698e-11 2.6244e-10 1.50374e-09 3.95038e-09 3.88805e-09 -1.5065e-08 -8.98744e-08 -2.52537e-07 -3.91494e-07 9.62235e-08 2.79014e-06 1.01985e-05 2.33763e-05 3.43243e-05 1.11282e-05 -0.000120392 -0.000481609 -0.00119751 -0.00225682 -0.00323956 -0.00292837 0.00108517 0.0125822 0.036414 0.0775023 0.13914 0.220901 0.316768 0.414255 0.495142 0.538062 0.522621 0.434115 0.267741 0.0310696 -0.255944 -0.563488 -0.856466 -1.10015 -1.26561 -1.33392 -1.29852 -1.16518 -0.950329 -0.677747 -0.374839 -0.0688986 0.216037 0.461271 0.654511 0.789943 0.867522 0.891791 0.870445 0.812953 0.72932 0.629089 0.520721 0.411168 0.305753 0.208204 0.120837 0.0447886 -0.019753 -0.0732599 -0.116634 -0.151051 -0.177752 -0.197978 -0.212863 -0.223386 -0.230334 -0.23427 -0.235543 -0.23427 -0.230334 -0.223386 -0.212863 -0.197978 -0.177752 -0.151051 -0.116634 -0.0732599 -0.019753 0.0447886 0.120837 0.208204 0.305753 0.411168 0.520721 0.629089 0.72932 0.812953 0.870445 0.891791 0.867522 0.789943 0.654511 0.461271 0.216037 -0.0688986 -0.374839 -0.677747 -0.950329 -1.16518 -1.29852 -1.33392 -1.26561 -1.10015 -0.856466 -0.563488 -0.255944 0.0310696 0.267741 0.434115 0.522621 0.538062 0.495142 0.414255 0.316768 0.220901 0.13914 0.0775023 0.036414 0.0125822 0.00108517 -0.00292837 -0.00323956 -0.00225682 -0.00119751 -0.000481609 -0.000120392 1.11282e-05 3.43244e-05 2.33763e-05 1.01985e-05 2.79014e-06 9.62228e-08 -3.91495e-07 -2.52537e-07 -8.98746e-08 -1.50651e-08 3.88805e-09 3.9504e-09 1.50386e-09 2.62808e-10 -4.70017e-11 -4.96732e-11 -1.68027e-11 -2.0869e-12 7.82336e-13 5.04325e-13 1.22797e-13 2.50424e-15 -8.90955e-15 -3.19301e-15 -4.00609e-16 8.79847e-17 5.05503e-17 8.9954e-18 -3.3891e-19 -5.32402e-19 -1.09571e-19 -1.53338e-21 3.99776e-21 8.33985e-22 1.80545e-23 -2.26227e-23 -4.18281e-24 -7.30985e-25 1.57819e-26 0 0 
0 0 1.94494e-26 -5.13539e-25 -3.1111e-24 -1.90492e-23 7.81539e-24 7.10264e-22 3.6836e-21 -9.47541e-22 -1.05808e-19 -5.36146e-19 -3.24529e-19 9.89759e-18 5.61598e-17 9.31233e-17 -5.1834e-16 -3.95319e-15 -1.06016e-14 7.17692e-15 1.72054e-13 6.69185e-13 8.8538e-13 -3.65344e-12 -2.48407e-11 -6.7257e-11 -3.91055e-11 4.67241e-10 2.28498e-09 5.35294e-09 2.88589e-09 -3.10228e-08 -1.4771e-07 -3.67209e-07 -4.34843e-07 7.20777e-07 5.57749e-06 1.73181e-05 3.46854e-05 3.80663e-05 -3.44382e-05 -0.000309688 -0.000965207 -0.00211321 -0.00350784 -0.00404208 -0.00111965 0.0098364 0.0353172 0.082668 0.157828 0.262149 0.389144 0.522448 0.636231 0.698771 0.678877 0.553761 0.316256 -0.0207519 -0.424283 -0.845826 -1.22964 -1.52272 -1.6843 -1.69251 -1.54732 -1.26918 -0.894399 -0.468205 -0.037438 0.356028 0.679976 0.914366 1.05164 1.09528 1.05721 0.954728 0.807445 0.634793 0.454071 0.279289 0.120715 -0.0151379 -0.125058 -0.208559 -0.267125 -0.303587 -0.321481 -0.324613 -0.316707 -0.301182 -0.281017 -0.258678 -0.236182 -0.215063 -0.196489 -0.181303 -0.170083 -0.163212 -0.160899 -0.163212 -0.170083 -0.181303 -0.196489 -0.215063 -0.236182 -0.258678 -0.281017 -0.301182 -0.316707 -0.324613 -0.321481 -0.303587 -0.267125 -0.208559 -0.125058 -0.0151379 0.120715 0.279289 0.454071 0.634793 0.807445 0.954728 1.05721 1.09528 1.05164 0.914366 0.679976 0.356028 -0.037438 -0.468205 -0.894399 -1.26918 -1.54732 -1.69251 -1.6843 -1.52272 -1.22964 -0.845826 -0.424283 -0.0207519 0.316256 0.553761 0.678877 0.698771 0.636231 0.522448 0.389145 0.262149 0.157828 0.0826678 0.0353172 0.00983639 -0.00111965 -0.00404208 -0.00350783 -0.00211321 -0.000965207 -0.000309688 -3.4438e-05 3.80665e-05 3.46855e-05 1.73181e-05 5.57751e-06 7.20781e-07 -4.34842e-07 -3.67211e-07 -1.4771e-07 -3.10229e-08 2.88606e-09 5.35339e-09 2.28535e-09 4.65168e-10 -3.86345e-11 -6.66835e-11 -2.46321e-11 -3.62168e-12 8.79e-13 6.64002e-13 1.70687e-13 7.10322e-15 -1.05253e-14 -3.92355e-15 -5.14217e-16 9.25189e-17 5.57576e-17 9.82375e-18 -3.23096e-19 -5.32438e-19 -1.05049e-19 -9.34793e-22 3.65872e-21 7.05319e-22 7.67263e-24 -1.95946e-23 -5.53729e-24 -5.87293e-25 0 0 
0 0 -3.91384e-25 -4.16065e-24 -1.53795e-23 -1.92006e-24 5.50331e-22 3.16847e-21 3.50051e-23 -9.31562e-20 -5.03936e-19 -3.40503e-19 9.89759e-18 5.80149e-17 9.51548e-17 -5.99835e-16 -4.52939e-15 -1.18919e-14 1.21997e-14 2.2126e-13 8.30571e-13 9.33545e-13 -5.59053e-12 -3.41289e-11 -8.57064e-11 -1.82556e-11 7.44137e-10 3.2499e-09 6.80755e-09 2.6813e-10 -5.45289e-08 -2.23551e-07 -4.94e-07 -3.81837e-07 1.84775e-06 9.76041e-06 2.67249e-05 4.62083e-05 2.85952e-05 -0.000133614 -0.000636364 -0.0017029 -0.00333253 -0.00475497 -0.00359207 0.00504 0.028959 0.0781558 0.162259 0.286231 0.445235 0.620531 0.778616 0.875231 0.864375 0.710546 0.400745 -0.0475652 -0.585591 -1.14034 -1.62832 -1.97224 -2.11658 -2.03812 -1.74927 -1.29398 -0.737867 -0.155409 0.383076 0.821556 1.12462 1.27925 1.29265 1.1875 0.995888 0.753242 0.493198 0.243985 0.0264373 -0.146456 -0.269104 -0.341887 -0.369523 -0.359427 -0.3203 -0.260866 -0.189118 -0.111837 -0.03435 0.0394382 0.10695 0.166689 0.218075 0.261118 0.29625 0.324159 0.345626 0.361416 0.372192 0.378439 0.38049 0.378439 0.372192 0.361416 0.345626 0.324159 0.29625 0.261118 0.218075 0.166689 0.10695 0.0394382 -0.03435 -0.111837 -0.189118 -0.260866 -0.3203 -0.359427 -0.369523 -0.341887 -0.269104 -0.146456 0.0264373 0.243985 0.493198 0.753242 0.995888 1.1875 1.29265 1.27925 1.12462 0.821556 0.383076 -0.155409 -0.737867 -1.29398 -1.74927 -2.03812 -2.11658 -1.97224 -1.62832 -1.14034 -0.585591 -0.0475652 0.400745 0.710546 0.864375 0.875231 0.778615 0.620531 0.445233 0.286231 0.162259 0.0781559 0.028959 0.00504001 -0.00359208 -0.00475498 -0.00333253 -0.0017029 -0.000636364 -0.000133614 2.85954e-05 4.62083e-05 2.6725e-05 9.76042e-06 1.84776e-06 -3.81838e-07 -4.94002e-07 -2.23552e-07 -5.45284e-08 2.6825e-10 6.8026e-09 3.22928e-09 7.38131e-10 -1.81439e-11 -8.50163e-11 -3.38514e-11 -5.54339e-12 9.27203e-13 8.24277e-13 2.19534e-13 1.2085e-14 -1.1808e-14 -4.49591e-15 -5.95141e-16 9.45488e-17 5.76038e-17 9.82451e-18 -3.38927e-19 -5.00477e-19 -9.2493e-20 3.98756e-23 3.14712e-21 5.46031e-22 -3.37902e-24 -1.11004e-23 -3.34823e-24 0 0 
0 0 -2.36794e-24 -9.56257e-24 -9.88621e-24 3.88428e-22 2.55174e-21 1.0548e-21 -7.51532e-20 -4.44637e-19 -3.7948e-19 9.06386e-18 5.61598e-17 9.51548e-17 -6.29406e-16 -4.84652e-15 -1.27172e-14 1.6499e-14 2.64232e-13 9.74337e-13 9.34575e-13 -7.73346e-12 -4.4096e-11 -1.04033e-10 1.57518e-11 1.08721e-09 4.36178e-09 8.1791e-09 -4.3025e-09 -8.5899e-08 -3.15311e-07 -6.18589e-07 -1.81106e-07 3.59345e-06 1.54385e-05 3.79218e-05 5.49262e-05 -3.88201e-06 -0.000308649 -0.001134 -0.00270661 -0.00472895 -0.00545592 -0.000422389 0.0186717 0.0639725 0.149286 0.285091 0.471372 0.6905 0.903528 1.05317 1.07483 0.913987 0.545198 -0.0137541 -0.698241 -1.4061 -2.01827 -2.42523 -2.55182 -2.37355 -1.9207 -1.26973 -0.525318 0.20166 0.814996 1.248 1.47051 1.48796 1.33419 1.06073 0.725499 0.382852 0.0766108 -0.163633 -0.323051 -0.399908 -0.402438 -0.345205 -0.245723 -0.121548 0.0116296 0.14124 0.258256 0.35708 0.435109 0.49213 0.529618 0.550138 0.556809 0.552885 0.54154 0.525579 0.507441 0.489128 0.472216 0.457939 0.447167 0.440476 0.438218 0.440476 0.447167 0.457939 0.472216 0.489128 0.507441 0.525579 0.54154 0.552885 0.556809 0.550138 0.529618 0.49213 0.435109 0.35708 0.258256 0.14124 0.0116296 -0.121548 -0.245723 -0.345205 -0.402438 -0.399908 -0.323051 -0.163633 0.0766108 0.382852 0.725499 1.06073 1.33419 1.48796 1.47051 1.248 0.814996 0.20166 -0.525318 -1.26973 -1.9207 -2.37355 -2.55182 -2.42523 -2.01827 -1.4061 -0.698241 -0.0137541 0.545198 0.913987 1.07483 1.05317 0.903525 0.690497 0.471372 0.285091 0.149287 0.0639726 0.0186717 -0.000422398 -0.00545593 -0.00472895 -0.00270662 -0.001134 -0.000308648 -3.88194e-06 5.49262e-05 3.79217e-05 1.54385e-05 3.59345e-06 -1.81107e-07 -6.18588e-07 -3.15311e-07 -8.59063e-08 -4.33298e-09 8.1132e-09 4.32448e-09 1.07787e-09 1.54954e-11 -1.03227e-10 -4.37464e-11 -7.6698e-12 9.28613e-13 9.67095e-13 2.62206e-13 1.63505e-14 -1.26289e-14 -4.81115e-15 -6.24541e-16 9.45546e-17 5.57656e-17 8.99751e-18 -3.77544e-19 -4.41603e-19 -7.46215e-20 1.05115e-21 2.53358e-21 3.92902e-22 6.30909e-23 -3.89864e-24 0 0 