<?xml version="1.0"?>
<VTKFile type="ImageData" version="0.1" byte_order="LittleEndian">
<ImageData WholeExtent="0 199 0 199 0 0" Origin="0 0 0" Spacing="15 15 0">
<Piece Extent="0 199 0 199 0 0">
<PointData Scalars="Amplitude">
<DataArray type="Float32" Name="Amplitude" format="ascii">
0 0 0 0 0 0 0 0 0 0 0 0 0 0 0 0 0 0 0 0 0 0 0 0 0 0 0 0 0 0 0 0 0 0 0 0 0 0 0 0 0 0 0 0 0 0 0 0 0 0 0 0 0 0 0 0 0 0 0 0 0 0 0 0 0 0 0 0 0 0 0 0 0 0 0 0 0 0 0 0 0 0 0 0 0 0 0 0 0 0 0 0 0 0 0 0 0 0 0 0 0 0 0 0 0 0 0 0 0 0 0 0 0 0 0 0 0 0 0 0 0 0 0 0 0 0 0 0 0 0 0 0 0 0 0 0 0 0 0 0 0 0 0 0 0 0 0 0 0 0 0 0 0 0 0 0 0 0 0 0 0 0 0 0 0 0 0 0 0 0 0 0 0 0 0 0 0 0 0 0 0 0 0 0 0 0 0 0 0 0 0 0 0 0 0 0 0 0 0 0 
0 0 0 0 0 0 0 0 0 0 0 0 0 0 0 0 0 0 0 0 0 0 0 0 0 0 0 0 0 0 0 0 0 0 0 0 0 0 0 0 0 0 0 0 0 0 0 0 0 0 0 0 0 0 0 0 0 0 0 0 0 0 0 0 0 0 0 0 0 0 0 0 0 0 0 0 0 0 0 0 0 0 0 0 0 0 0 0 0 0 0 0 0 0 0 0 0 0 0 0 0 0 0 0 0 0 0 0 0 0 0 0 0 0 0 0 0 0 0 0 0 0 0 0 0 0 0 0 0 0 0 0 0 0 0 0 0 0 0 0 0 0 0 0 0 0 0 0 0 0 0 0 0 0 0 0 0 0 0 0 0 0 0 0 0 0 0 0 0 0 0 0 0 0 0 0 0 0 0 0 0 0 0 0 0 0 0 0 0 0 0 0 0 0 0 0 0 0 0 0 
0 0 0 0 0 0 0 0 0 0 0 0 0 0 0 0 0 0 0 0 0 0 0 0 0 0 0 0 0 0 0 0 0 0 0 0 0 0 0 0 0 0 0 0 0 0 0 0 0 0 0 0 0 0 0 0 0 0 0 0 0 0 0 0 0 0 0 0 0 0 0 0 0 0 0 0 0 0 0 0 0 0 0 0 0 0 0 0 0 0 0 0 0 0 0 0 0 0 0 0 0 0 0 0 0 0 0 0 0 0 0 0 0 0 0 0 0 0 0 0 0 0 0 0 0 0 0 0 0 0 0 0 0 0 0 0 0 0 0 0 0 0 0 0 0 0 0 0 0 0 0 0 0 0 0 0 0 0 0 0 0 0 0 0 0 0 0 0 0 0 0 0 0 0 0 0 0 0 0 0 0 0 0 0 0 0 0 0 0 0 0 0 0 0 0 0 0 0 0 0 
0 0 0 0 0 0 0 0 0 0 0 0 0 0 0 0 0 0 0 0 0 0 0 0 0 0 0 0 0 0 0 0 0 0 0 0 0 0 0 0 0 0 0 0 0 0 0 0 0 0 0 0 0 0 0 0 0 0 0 0 0 0 0 0 0 0 0 0 0 0 0 0 0 0 0 0 0 0 0 0 0 0 0 0 0 0 0 0 0 0 0 0 0 0 0 0 0 0 0 0 0 0 0 0 0 0 0 0 0 0 0 0 0 0 0 0 0 0 0 0 0 0 0 0 0 0 0 0 0 0 0 0 0 0 0 0 0 0 0 0 0 0 0 0 0 0 0 0 0 0 0 0 0 0 0 0 0 0 0 0 0 0 0 0 0 0 0 0 0 0 0 0 0 0 0 0 0 0 0 0 0 0 0 0 0 0 0 0 0 0 0 0 0 0 0 0 0 0 0 0 
0 0 0 0 0 0 0 0 0 0 0 0 0 0 0 0 0 0 0 0 0 0 0 0 0 0 0 0 0 0 0 0 0 0 0 0 0 0 0 0 0 0 0 0 0 0 0 0 0 0 0 0 0 0 0 0 0 0 0 0 0 0 0 0 0 0 0 0 0 0 0 0 0 0 0 0 0 0 0 0 0 0 0 0 0 0 0 0 0 0 0 0 0 0 0 0 0 0 0 0 0 0 0 0 0 0 0 0 0 0 0 0 0 0 0 0 0 0 0 0 0 0 0 0 0 0 0 0 0 0 0 0 0 0 0 0 0 0 0 0 0 0 0 0 0 0 0 0 0 0 0 0 0 0 0 0 0 0 0 0 0 0 0 0 0 0 0 0 0 0 0 0 0 0 0 0 0 0 0 0 0 0 0 0 0 0 0 0 0 0 0 0 0 0 0 0 0 0 0 0 
0 0 0 0 0 0 0 0 0 0 0 0 0 0 0 0 0 0 0 0 0 0 0 0 0 0 0 0 0 0 0 0 0 0 0 0 0 0 0 0 0 0 0 0 0 0 0 0 0 0 0 0 0 0 0 0 0 0 0 0 0 0 0 0 0 0 0 0 0 0 0 0 0 0 0 0 0 0 0 0 0 0 0 0 0 0 0 0 0 0 0 0 0 0 0 0 0 0 0 0 0 0 0 0 0 0 0 0 0 0 0 0 0 0 0 0 0 0 0 0 0 0 0 0 0 0 0 0 0 0 0 0 0 0 0 0 0 0 0 0 0 0 0 0 0 0 0 0 0 0 0 0 0 0 0 0 0 0 0 0 0 0 0 0 0 0 0 0 0 0 0 0 0 0 0 0 0 0 0 0 0 0 0 0 0 0 0 0 0 0 0 0 0 0 0 0 0 0 0 0 
0 0 0 0 0 0 0 0 0 0 0 0 0 0 0 0 0 0 0 0 0 0 0 0 0 0 0 0 0 0 0 0 0 0 0 0 0 0 0 0 0 0 0 0 0 0 0 0 0 0 0 0 0 0 0 0 0 0 0 0 0 0 0 0 0 0 0 0 0 0 0 0 0 0 0 0 0 0 0 0 0 0 0 0 0 0 0 0 0 0 0 0 0 0 0 0 0 0 0 0 0 0 0 0 0 0 0 0 0 0 0 0 0 0 0 0 0 0 0 0 0 0 0 0 0 0 0 0 0 0 0 0 0 0 0 0 0 0 0 0 0 0 0 0 0 0 0 0 0 0 0 0 0 0 0 0 0 0 0 0 0 0 0 0 0 0 0 0 0 0 0 0 0 0 0 0 0 0 0 0 0 0 0 0 0 0 0 0 0 0 0 0 0 0 0 0 0 0 0 0 
0 0 0 0 0 0 0 0 0 0 0 0 0 0 0 0 0 0 0 0 0 0 0 0 0 0 0 0 0 0 0 0 0 0 0 0 0 0 0 0 0 0 0 0 0 0 0 0 0 0 0 0 0 0 0 0 0 0 0 0 0 0 0 0 0 0 0 0 0 0 0 0 0 0 0 0 0 0 0 0 0 0 0 0 0 0 0 0 0 0 0 0 0 0 0 0 0 0 0 0 0 0 0 0 0 0 0 0 0 0 0 0 0 0 0 0 0 0 0 0 0 0 0 0 0 0 0 0 0 0 0 0 0 0 0 0 0 0 0 0 0 0 0 0 0 0 0 0 0 0 0 0 0 0 0 0 0 0 0 0 0 0 0 0 0 0 0 0 0 0 0 0 0 0 0 0 0 0 0 0 0 0 0 0 0 0 0 0 0 0 0 0 0 0 0 0 0 0 0 0 
0 0 0 0 0 0 0 0 0 0 0 0 0 0 0 0 0 0 0 0 0 0 0 0 0 0 0 0 0 0 0 0 0 0 0 0 0 0 0 0 0 0 0 0 0 0 0 0 0 0 0 0 0 0 0 0 0 0 0 0 0 0 0 0 0 0 0 0 0 0 0 0 0 0 0 0 0 0 0 0 0 0 0 0 0 0 0 0 0 0 0 0 0 0 0 0 0 0 0 0 0 0 0 0 0 0 0 0 0 0 0 0 0 0 0 0 0 0 0 0 0 0 0 0 0 0 0 0 0 0 0 0 0 0 0 0 0 0 0 0 0 0 0 0 0 0 0 0 0 0 0 0 0 0 0 0 0 0 0 0 0 0 0 0 0 0 0 0 0 0 0 0 0 0 0 0 0 0 0 0 0 0 0 0 0 0 0 0 0 0 0 0 0 0 0 0 0 0 0 0 
0 0 0 0 0 0 0 0 0 0 0 0 0 0 0 0 0 0 0 0 0 0 0 0 0 0 0 0 0 0 0 0 0 0 0 0 0 0 0 0 0 0 0 0 0 0 0 0 0 0 0 0 0 0 0 0 0 0 0 0 0 0 0 0 0 0 0 0 0 0 0 0 0 0 0 0 0 0 0 0 0 0 0 0 0 0 0 0 0 0 0 0 0 0 0 0 0 0 0 0 0 0 0 0 0 0 0 0 0 0 0 0 0 0 0 0 0 0 0 0 0 0 0 0 0 0 0 0 0 0 0 0 0 0 0 0 0 0 0 0 0 0 0 0 0 0 0 0 0 0 0 0 0 0 0 0 0 0 0 0 0 0 0 0 0 0 0 0 0 0 0 0 0 0 0 0 0 0 0 0 0 0 0 0 0 0 0 0 0 0 0 0 0 0 0 0 0 0 0 0 
0 0 0 0 0 0 0 0 0 0 0 0 0 0 0 0 0 0 0 0 0 0 0 0 0 0 0 0 0 0 0 0 0 0 0 0 0 0 0 0 0 0 0 0 0 0 0 0 0 0 0 0 0 0 0 0 0 0 0 0 0 0 0 0 0 0 0 0 0 0 0 0 0 0 0 0 0 0 0 0 0 0 0 0 0 0 0 0 0 0 0 0 0 0 0 0 0 0 0 0 0 0 0 0 0 0 0 0 0 0 0 0 0 0 0 0 0 0 0 0 0 0 0 0 0 0 0 0 0 0 0 0 0 0 0 0 0 0 0 0 0 0 0 0 0 0 0 0 0 0 0 0 0 0 0 0 0 0 0 0 0 0 0 0 0 0 0 0 0 0 0 0 0 0 0 0 0 0 0 0 0 0 0 0 0 0 0 0 0 0 0 0 0 0 0 0 0 0 0 0 
0 0 0 0 0 0 0 0 0 0 0 0 0 0 0 0 0 0 0 0 0 0 0 0 0 0 0 0 0 0 0 0 0 0 0 0 0 0 0 0 0 0 0 0 0 0 0 0 0 0 0 0 0 0 0 0 0 0 0 0 0 0 0 0 0 0 0 0 0 0 0 0 0 0 0 0 0 0 0 0 0 0 0 0 0 0 0 0 0 0 0 0 0 0 0 0 0 0 0 0 0 0 0 0 0 0 0 0 0 0 0 0 0 0 0 0 0 0 0 0 0 0 0 0 0 0 0 0 0 0 0 0 0 0 0 0 0 0 0 0 0 0 0 0 0 0 0 0 0 0 0 0 0 0 0 0 0 0 0 0 0 0 0 0 0 0 0 0 0 0 0 0 0 0 0 0 0 0 0 0 0 0 0 0 0 0 0 0 0 0 0 0 0 0 0 0 0 0 0 0 
0 0 0 0 0 0 0 0 0 0 0 0 0 0 0 0 0 0 0 0 0 0 0 0 0 0 0 0 0 0 0 0 0 0 0 0 0 0 0 0 0 0 0 0 0 0 0 0 0 0 0 0 0 0 0 0 0 0 0 0 0 0 0 0 0 0 0 0 0 0 0 0 0 0 0 0 0 0 0 0 0 0 0 0 0 0 0 0 0 0 0 0 0 0 0 0 0 0 0 0 0 0 0 0 0 0 0 0 0 0 0 0 0 0 0 0 0 0 0 0 0 0 0 0 0 0 0 0 0 0 0 0 0 0 0 0 0 0 0 0 0 0 0 0 0 0 0 0 0 0 0 0 0 0 0 0 0 0 0 0 0 0 0 0 0 0 0 0 0 0 0 0 0 0 0 0 0 0 0 0 0 0 0 0 0 0 0 0 0 0 0 0 0 0 0 0 0 0 0 0 
0 0 0 0 0 0 0 0 0 0 0 0 0 0 0 0 0 0 0 0 0 0 0 0 0 0 0 0 0 0 0 0 0 0 0 0 0 0 0 0 0 0 0 0 0 0 0 0 0 0 0 0 0 0 0 0 0 0 0 0 0 0 0 0 0 0 0 0 0 0 0 0 0 0 0 0 0 0 0 0 0 0 0 0 0 0 0 0 0 0 0 0 0 0 0 0 0 0 0 0 0 0 0 0 0 0 0 0 0 0 0 0 0 0 0 0 0 0 0 0 0 0 0 0 0 0 0 0 0 0 0 0 0 0 0 0 0 0 0 0 0 0 0 0 0 0 0 0 0 0 0 0 0 0 0 0 0 0 0 0 0 0 0 0 0 0 0 0 0 0 0 0 0 0 0 0 0 0 0 0 0 0 0 0 0 0 0 0 0 0 0 0 0 0 0 0 0 0 0 0 
0 0 0 0 0 0 0 0 0 0 0 0 0 0 0 0 0 0 0 0 0 0 0 0 0 0 0 0 0 0 0 0 0 0 0 0 0 0 0 0 0 0 0 0 0 0 0 0 0 0 0 0 0 0 0 0 0 0 0 0 0 0 0 0 0 0 0 0 0 0 0 0 0 0 0 0 0 0 0 0 0 0 0 0 0 0 0 0 0 0 0 0 0 0 0 0 0 0 0 0 0 0 0 0 0 0 0 0 0 0 0 0 0 0 0 0 0 0 0 0 0 0 0 0 0 0 0 0 0 0 0 0 0 0 0 0 0 0 0 0 0 0 0 0 0 0 0 0 0 0 0 0 0 0 0 0 0 0 0 0 0 0 0 0 0 0 0 0 0 0 0 0 0 0 0 0 0 0 0 0 0 0 0 0 0 0 0 0 0 0 0 0 0 0 0 0 0 0 0 0 
0 0 0 0 0 0 0 0 0 0 0 0 0 0 0 0 0 0 0 0 0 0 0 0 0 0 0 0 0 0 0 0 0 0 0 0 0 0 0 0 0 0 0 0 0 0 0 0 0 0 0 0 0 0 0 0 0 0 0 0 0 0 0 0 0 0 0 0 0 0 0 0 0 0 0 0 0 0 0 0 0 0 0 0 0 0 0 0 0 0 0 0 0 0 0 0 0 0 0 0 0 0 0 0 0 0 0 0 0 0 0 0 0 0 0 0 0 0 0 0 0 0 0 0 0 0 0 0 0 0 0 0 0 0 0 0 0 0 0 0 0 0 0 0 0 0 0 0 0 0 0 0 0 0 0 0 0 0 0 0 0 0 0 0 0 0 0 0 0 0 0 0 0 0 0 0 0 0 0 0 0 0 0 0 0 0 0 0 0 0 0 0 0 0 0 0 0 0 0 0 
0 0 0 0 0 0 0 0 0 0 0 0 0 0 0 0 0 0 0 0 0 0 0 0 0 0 0 0 0 0 0 0 0 0 0 0 0 0 0 0 0 0 0 0 0 0 0 0 0 0 0 0 0 0 0 0 0 0 0 0 0 0 0 0 0 0 0 0 0 0 0 0 0 0 0 0 0 0 0 0 0 0 0 0 0 0 0 0 0 0 0 0 0 0 0 0 0 0 0 0 0 0 0 0 0 0 0 0 0 0 0 0 0 0 0 0 0 0 0 0 0 0 0 0 0 0 0 0 0 0 0 0 0 0 0 0 0 0 0 0 0 0 0 0 0 0 0 0 0 0 0 0 0 0 0 0 0 0 0 0 0 0 0 0 0 0 0 0 0 0 0 0 0 0 0 0 0 0 0 0 0 0 0 0 0 0 0 0 0 0 0 0 0 0 0 0 0 0 0 0 
0 0 0 0 0 0 0 0 0 0 0 0 0 0 0 0 0 0 0 0 0 0 0 0 0 0 0 0 0 0 0 0 0 0 0 0 0 0 0 0 0 0 0 0 0 0 0 0 0 0 0 0 0 0 0 0 0 0 0 0 0 0 0 0 0 0 0 0 0 0 0 0 0 0 0 0 0 0 0 0 0 0 0 0 0 0 0 0 0 0 0 0 0 0 0 0 0 0 0 0 0 0 0 0 0 0 0 0 0 0 0 0 0 0 0 0 0 0 0 0 0 0 0 0 0 0 0 0 0 0 0 0 0 0 0 0 0 0 0 0 0 0 0 0 0 0 0 0 0 0 0 0 0 0 0 0 0 0 0 0 0 0 0 0 0 0 0 0 0 0 0 0 0 0 0 0 0 0 0 0 0 0 0 0 0 0 0 0 0 0 0 0 0 0 0 0 0 0 0 0 
0 0 0 0 0 0 0 0 0 0 0 0 0 0 0 0 0 0 0 0 0 0 0 0 0 0 0 0 0 0 0 0 0 0 0 0 0 0 0 0 0 0 0 0 0 0 0 0 0 0 0 0 0 0 0 0 0 0 0 0 0 0 0 0 0 0 0 0 0 0 0 0 0 0 0 0 0 0 0 0 0 0 0 0 0 0 0 0 0 0 0 0 0 0 0 0 0 0 0 0 0 0 0 0 0 0 0 0 0 0 0 0 0 0 0 0 0 0 0 0 0 0 0 0 0 0 0 0 0 0 0 0 0 0 0 0 0 0 0 0 0 0 0 0 0 0 0 0 0 0 0 0 0 0 0 0 0 0 0 0 0 0 0 0 0 0 0 0 0 0 0 0 0 0 0 0 0 0 0 0 0 0 0 0 0 0 0 0 0 0 0 0 0 0 0 0 0 0 0 0 
0 0 0 0 0 0 0 0 0 0 0 0 0 0 0 0 0 0 0 0 0 0 0 0 0 0 0 0 0 0 0 0 0 0 0 0 0 0 0 0 0 0 0 0 0 0 0 0 0 0 0 0 0 0 0 0 0 0 0 0 0 0 0 0 0 0 0 0 0 0 0 0 0 0 0 0 0 0 0 0 0 0 0 0 0 0 0 0 0 0 0 0 0 0 0 0 0 -0 -0 -0 -0 -0 -0 -0 0 0 0 0 0 0 0 0 0 0 0 0 0 0 0 0 0 0 0 0 0 0 0 0 0 0 0 0 0 0 0 0 0 0 0 0 0 0 0 0 0 0 0 0 0 0 0 0 0 0 0 0 0 0 0 0 0 0 0 0 0 0 0 0 0 0 0 0 0 0 0 0 0 0 0 0 0 0 0 0 0 0 0 0 0 0 0 0 0 0 0 0 0 0 0 0 
0 0 0 0 0 0 0 0 0 0 0 0 0 0 0 0 0 0 0 0 0 0 0 0 0 0 0 0 0 0 0 0 0 0 0 0 0 0 0 0 0 0 0 0 0 0 0 0 0 0 0 0 0 0 0 0 0 0 0 0 0 0 0 0 0 0 0 0 0 0 0 0 0 0 0 0 0 0 0 0 0 0 0 0 0 0 0 0 0 0 0 0 0 -0 -0 -0 -0 -0 -0 -0 -0 -0 -0 -0 -0 -0 -0 -0 0 0 0 0 0 0 0 0 0 0 0 0 0 0 0 0 0 0 0 0 0 0 0 0 0 0 0 0 0 0 0 0 0 0 0 0 0 0 0 0 0 0 0 0 0 0 0 0 0 0 0 0 0 0 0 0 0 0 0 0 0 0 0 0 0 0 0 0 0 0 0 0 0 0 0 0 0 0 0 0 0 0 0 0 0 0 0 0 0 0 0 0 
0 0 0 0 0 0 0 0 0 0 0 0 0 0 0 0 0 0 0 0 0 0 0 0 0 0 0 0 0 0 0 0 0 0 0 0 0 0 0 0 0 0 0 0 0 0 0 0 0 0 0 0 0 0 0 0 0 0 0 0 0 0 0 0 0 0 0 0 0 0 0 0 0 0 0 0 0 0 0 0 0 0 0 0 0 0 0 0 0 0 -0 -0 -0 -0 0 0 1.39994e-45 2.09991e-44 6.29974e-44 9.23962e-44 1.10595e-43 9.23962e-44 6.29974e-44 2.09991e-44 1.39994e-45 0 0 -0 -0 -0 -0 0 0 0 0 0 0 0 0 0 0 0 0 0 0 0 0 0 0 0 0 0 0 0 0 0 0 0 0 0 0 0 0 0 0 0 0 0 0 0 0 0 0 0 0 0 0 0 0 0 0 0 0 0 0 0 0 0 0 0 0 0 0 0 0 0 0 0 0 0 0 0 0 0 0 0 0 0 0 0 0 0 0 0 0 0 0 0 0 0 
0 0 0 0 0 0 0 0 0 0 0 0 0 0 0 0 0 0 0 0 0 0 0 0 0 0 0 0 0 0 0 0 0 0 0 0 0 0 0 0 0 0 0 0 0 0 0 0 0 0 0 0 0 0 0 0 0 0 0 0 0 0 0 0 0 0 0 0 0 0 0 0 0 0 0 0 0 0 0 0 0 0 0 0 0 0 0 0 -0 -0 -0 0 0 6.30241e-44 2.43693e-43 6.12034e-43 1.12743e-42 1.69745e-42 2.21565e-42 2.58959e-42 2.70724e-42 2.58959e-42 2.21565e-42 1.69745e-42 1.12743e-42 6.12034e-43 2.43693e-43 6.30241e-44 0 0 -0 -0 -0 0 0 0 0 0 0 0 0 0 0 0 0 0 0 0 0 0 0 0 0 0 0 0 0 0 0 0 0 0 0 0 0 0 0 0 0 0 0 0 0 0 0 0 0 0 0 0 0 0 0 0 0 0 0 0 0 0 0 0 0 0 0 0 0 0 0 0 0 0 0 0 0 0 0 0 0 0 0 0 0 0 0 0 0 0 0 0 
0 0 0 0 0 0 0 0 0 0 0 0 0 0 0 0 0 0 0 0 0 0 0 0 0 0 0 0 0 0 0 0 0 0 0 0 0 0 0 0 0 0 0 0 0 0 0 0 0 0 0 0 0 0 0 0 0 0 0 0 0 0 0 0 0 0 0 0 0 0 0 0 0 0 0 0 0 0 0 0 0 0 0 0 0 0 0 -0 -0 0 8.40576e-45 2.0454e-43 7.76131e-43 1.73999e-42 2.74028e-42 3.28665e-42 2.52593e-42 4.45505e-43 -2.64361e-42 -5.32925e-42 -6.32533e-42 -5.32925e-42 -2.64361e-42 4.45505e-43 2.52593e-42 3.28665e-42 2.74028e-42 1.73999e-42 7.76131e-43 2.0454e-43 8.40576e-45 0 -0 -0 0 0 0 0 0 0 0 0 0 0 0 0 0 0 0 0 0 0 0 0 0 0 0 0 0 0 0 0 0 0 0 0 0 0 0 0 0 0 0 0 0 0 0 0 0 0 0 0 0 0 0 0 0 0 0 0 0 0 0 0 0 0 0 0 0 0 0 0 0 0 0 0 0 0 0 0 0 0 0 0 0 0 0 0 0 0 
0 0 0 0 0 0 0 0 0 0 0 0 0 0 0 0 0 0 0 0 0 0 0 0 0 0 0 0 0 0 0 0 0 0 0 0 0 0 0 0 0 0 0 0 0 0 0 0 0 0 0 0 0 0 0 0 0 0 0 0 0 0 0 0 0 0 0 0 0 0 0 0 0 0 0 0 0 0 0 0 0 0 0 0 0 -0 -0 0 8.40728e-45 2.28398e-43 9.07986e-43 1.74871e-42 7.28631e-43 -6.70481e-42 -2.64871e-41 -6.30112e-41 -1.1518e-40 -1.7501e-40 -2.30236e-40 -2.68749e-40 -2.82436e-40 -2.68749e-40 -2.30236e-40 -1.7501e-40 -1.1518e-40 -6.30112e-41 -2.64871e-41 -6.70481e-42 7.28631e-43 1.74871e-42 9.07986e-43 2.28398e-43 8.40728e-45 0 -0 -0 0 0 0 0 0 0 0 0 0 0 0 0 0 0 0 0 0 0 0 0 0 0 0 0 0 0 0 0 0 0 0 0 0 0 0 0 0 0 0 0 0 0 0 0 0 0 0 0 0 0 0 0 0 0 0 0 0 0 0 0 0 0 0 0 0 0 0 0 0 0 0 0 0 0 0 0 0 0 0 0 0 0 0 0 
0 0 0 0 0 0 0 0 0 0 0 0 0 0 0 0 0 0 0 0 0 0 0 0 0 0 0 0 0 0 0 0 0 0 0 0 0 0 0 0 0 0 0 0 0 0 0 0 0 0 0 0 0 0 0 0 0 0 0 0 0 0 0 0 0 0 0 0 0 0 0 0 0 0 0 0 0 0 0 0 0 0 0 -0 -0 -0 0 1.69557e-43 7.67912e-43 7.9874e-43 -4.39307e-42 -2.77962e-41 -8.96999e-41 -2.04619e-40 -3.60944e-40 -5.10668e-40 -5.88849e-40 -5.57652e-40 -4.39984e-40 -3.12143e-40 -2.57545e-40 -3.12143e-40 -4.39984e-40 -5.57652e-40 -5.88849e-40 -5.10668e-40 -3.60944e-40 -2.04619e-40 -8.96999e-41 -2.77962e-41 -4.39307e-42 7.9874e-43 7.67912e-43 1.69557e-43 0 -0 -0 -0 0 0 0 0 0 0 0 0 0 0 0 0 0 0 0 0 0 0 0 0 0 0 0 0 0 0 0 0 0 0 0 0 0 0 0 0 0 0 0 0 0 0 0 0 0 0 0 0 0 0 0 0 0 0 0 0 0 0 0 0 0 0 0 0 0 0 0 0 0 0 0 0 0 0 0 0 0 0 0 0 0 0 
0 0 0 0 0 0 0 0 0 0 0 0 0 0 0 0 0 0 0 0 0 0 0 0 0 0 0 0 0 0 0 0 0 0 0 0 0 0 0 0 0 0 0 0 0 0 0 0 0 0 0 0 0 0 0 0 0 0 0 0 0 0 0 0 0 0 0 0 0 0 0 0 0 0 0 0 0 0 0 0 0 0 -0 -0 0 7.70714e-44 5.60519e-43 6.99248e-43 -5.44264e-42 -3.7744e-41 -1.27358e-40 -2.75324e-40 -3.52963e-40 -1.0748e-42 1.33204e-39 4.12823e-39 8.43058e-39 1.36413e-38 1.86605e-38 2.22797e-38 2.35959e-38 2.22797e-38 1.86605e-38 1.36413e-38 8.43058e-39 4.12823e-39 1.33204e-39 -1.0748e-42 -3.52963e-40 -2.75324e-40 -1.27358e-40 -3.7744e-41 -5.44264e-42 6.99248e-43 5.60519e-43 7.70714e-44 0 -0 -0 0 0 0 0 0 0 0 0 0 0 0 0 0 0 0 0 0 0 0 0 0 0 0 0 0 0 0 0 0 0 0 0 0 0 0 0 0 0 0 0 0 0 0 0 0 0 0 0 0 0 0 0 0 0 0 0 0 0 0 0 0 0 0 0 0 0 0 0 0 0 0 0 0 0 0 0 0 0 0 0 0 
0 0 0 0 0 0 0 0 0 0 0 0 0 0 0 0 0 0 0 0 0 0 0 0 0 0 0 0 0 0 0 0 0 0 0 0 0 0 0 0 0 0 0 0 0 0 0 0 0 0 0 0 0 0 0 0 0 0 0 0 0 0 0 0 0 0 0 0 0 0 0 0 0 0 0 0 0 0 0 0 -0 -0 0 1.4013e-44 3.44719e-43 1.00613e-42 -2.53635e-42 -2.98308e-41 -1.15718e-40 -2.27345e-40 1.32395e-41 1.76128e-39 7.08492e-39 1.81155e-38 3.52198e-38 5.55794e-38 7.39604e-38 8.57327e-38 8.98815e-38 8.93951e-38 8.85723e-38 8.93951e-38 8.98815e-38 8.57327e-38 7.39604e-38 5.55794e-38 3.52198e-38 1.81155e-38 7.08492e-39 1.76128e-39 1.32395e-41 -2.27345e-40 -1.15718e-40 -2.98308e-41 -2.53635e-42 1.00613e-42 3.44719e-43 1.4013e-44 0 -0 -0 0 0 0 0 0 0 0 0 0 0 0 0 0 0 0 0 0 0 0 0 0 0 0 0 0 0 0 0 0 0 0 0 0 0 0 0 0 0 0 0 0 0 0 0 0 0 0 0 0 0 0 0 0 0 0 0 0 0 0 0 0 0 0 0 0 0 0 0 0 0 0 0 0 0 0 0 0 0 0 
0 0 0 0 0 0 0 0 0 0 0 0 0 0 0 0 0 0 0 0 0 0 0 0 0 0 0 0 0 0 0 0 0 0 0 0 0 0 0 0 0 0 0 0 0 0 0 0 0 0 0 0 0 0 0 0 0 0 0 0 0 0 0 0 0 0 0 0 0 0 0 0 0 0 0 0 0 0 0 -0 -0 0 1.28919e-43 8.64601e-43 4.25995e-43 -1.58515e-41 -8.57244e-41 -1.8886e-40 1.71803e-40 2.8684e-39 1.1632e-38 2.94604e-38 5.06111e-38 5.06109e-38 -1.44794e-38 -1.89896e-37 -4.91063e-37 -8.80834e-37 -1.27352e-36 -1.56509e-36 -1.67271e-36 -1.56509e-36 -1.27352e-36 -8.80834e-37 -4.91063e-37 -1.89896e-37 -1.44794e-38 5.06109e-38 5.06111e-38 2.94604e-38 1.1632e-38 2.8684e-39 1.71803e-40 -1.8886e-40 -8.57244e-41 -1.58515e-41 4.25995e-43 8.64601e-43 1.28919e-43 0 -0 -0 0 0 0 0 0 0 0 0 0 0 0 0 0 0 0 0 0 0 0 0 0 0 0 0 0 0 0 0 0 0 0 0 0 0 0 0 0 0 0 0 0 0 0 0 0 0 0 0 0 0 0 0 0 0 0 0 0 0 0 0 0 0 0 0 0 0 0 0 0 0 0 0 0 0 0 0 0 0 
0 0 0 0 0 0 0 0 0 0 0 0 0 0 0 0 0 0 0 0 0 0 0 0 0 0 0 0 0 0 0 0 0 0 0 0 0 0 0 0 0 0 0 0 0 0 0 0 0 0 0 0 0 0 0 0 0 0 0 0 0 0 0 0 0 0 0 0 0 0 0 0 0 0 0 0 0 0 -0 -0 8.40779e-45 4.04975e-43 1.4027e-42 -4.1016e-42 -5.0273e-41 -1.69069e-40 -1.81804e-41 2.28227e-39 1.11321e-38 2.82972e-38 3.04927e-38 -7.22366e-38 -4.64962e-37 -1.38131e-36 -2.95968e-36 -5.09039e-36 -7.40135e-36 -9.43285e-36 -1.08739e-35 -1.16672e-35 -1.19104e-35 -1.16672e-35 -1.08739e-35 -9.43285e-36 -7.40135e-36 -5.09039e-36 -2.95968e-36 -1.38131e-36 -4.64962e-37 -7.22366e-38 3.04927e-38 2.82972e-38 1.11321e-38 2.28227e-39 -1.81804e-41 -1.69069e-40 -5.0273e-41 -4.1016e-42 1.4027e-42 4.04975e-43 8.40779e-45 -0 -0 0 0 0 0 0 0 0 0 0 0 0 0 0 0 0 0 0 0 0 0 0 0 0 0 0 0 0 0 0 0 0 0 0 0 0 0 0 0 0 0 0 0 0 0 0 0 0 0 0 0 0 0 0 0 0 0 0 0 0 0 0 0 0 0 0 0 0 0 0 0 0 0 0 0 0 0 0 
0 0 0 0 0 0 0 0 0 0 0 0 0 0 0 0 0 0 0 0 0 0 0 0 0 0 0 0 0 0 0 0 0 0 0 0 0 0 0 0 0 0 0 0 0 0 0 0 0 0 0 0 0 0 0 0 0 0 0 0 0 0 0 0 0 0 0 0 0 0 0 0 0 0 0 0 -0 -0 0 9.3887e-44 9.85113e-43 1.31021e-42 -1.85196e-41 -1.16723e-40 -2.01767e-40 1.02631e-39 7.88014e-39 2.30725e-38 1.35351e-38 -1.77866e-37 -9.24823e-37 -2.70499e-36 -5.53456e-36 -8.09555e-36 -7.36931e-36 3.26026e-37 1.70383e-35 4.10914e-35 6.68351e-35 8.66387e-35 9.40716e-35 8.66387e-35 6.68351e-35 4.10914e-35 1.70383e-35 3.26026e-37 -7.36931e-36 -8.09555e-36 -5.53456e-36 -2.70499e-36 -9.24823e-37 -1.77866e-37 1.35351e-38 2.30725e-38 7.88014e-39 1.02631e-39 -2.01767e-40 -1.16723e-40 -1.85196e-41 1.31021e-42 9.85113e-43 9.3887e-44 0 -0 -0 0 0 0 0 0 0 0 0 0 0 0 0 0 0 0 0 0 0 0 0 0 0 0 0 0 0 0 0 0 0 0 0 0 0 0 0 0 0 0 0 0 0 0 0 0 0 0 0 0 0 0 0 0 0 0 0 0 0 0 0 0 0 0 0 0 0 0 0 0 0 0 0 0 0 0 
0 0 0 0 0 0 0 0 0 0 0 0 0 0 0 0 0 0 0 0 0 0 0 0 0 0 0 0 0 0 0 0 0 0 0 0 0 0 0 0 0 0 0 0 0 0 0 0 0 0 0 0 0 0 0 0 0 0 0 0 0 0 0 0 0 0 0 0 0 0 0 0 0 0 0 -0 -0 0 3.11088e-43 1.8357e-42 -1.20652e-42 -5.15888e-41 -2.10304e-40 6.93741e-41 4.14554e-39 1.7953e-38 2.09841e-38 -1.45656e-37 -9.44053e-37 -2.92679e-36 -5.16156e-36 -1.72535e-36 2.17317e-35 8.63795e-35 2.10243e-34 3.94423e-34 6.16461e-34 8.3768e-34 1.01943e-33 1.13584e-33 1.17551e-33 1.13584e-33 1.01943e-33 8.3768e-34 6.16461e-34 3.94423e-34 2.10243e-34 8.63795e-35 2.17317e-35 -1.72535e-36 -5.16156e-36 -2.92679e-36 -9.44053e-37 -1.45656e-37 2.09841e-38 1.7953e-38 4.14554e-39 6.93741e-41 -2.10304e-40 -5.15888e-41 -1.20652e-42 1.8357e-42 3.11088e-43 0 -0 -0 0 0 0 0 0 0 0 0 0 0 0 0 0 0 0 0 0 0 0 0 0 0 0 0 0 0 0 0 0 0 0 0 0 0 0 0 0 0 0 0 0 0 0 0 0 0 0 0 0 0 0 0 0 0 0 0 0 0 0 0 0 0 0 0 0 0 0 0 0 0 0 0 0 0 
0 0 0 0 0 0 0 0 0 0 0 0 0 0 0 0 0 0 0 0 0 0 0 0 0 0 0 0 0 0 0 0 0 0 0 0 0 0 0 0 0 0 0 0 0 0 0 0 0 0 0 0 0 0 0 0 0 0 0 0 0 0 0 0 0 0 0 0 0 0 0 0 0 0 -0 -0 2.10195e-44 7.18866e-43 2.70451e-42 -9.92119e-42 -1.14686e-40 -2.81498e-40 1.18341e-39 1.08487e-38 2.8125e-38 -4.85477e-38 -6.45229e-37 -2.39056e-36 -3.70495e-36 6.77271e-36 6.11577e-35 2.1205e-34 4.98575e-34 8.7923e-34 1.18294e-33 1.15088e-33 5.81831e-34 -5.0539e-34 -1.81589e-33 -2.88573e-33 -3.29782e-33 -2.88573e-33 -1.81589e-33 -5.0539e-34 5.81831e-34 1.15088e-33 1.18294e-33 8.7923e-34 4.98575e-34 2.1205e-34 6.11577e-35 6.77271e-36 -3.70495e-36 -2.39056e-36 -6.45229e-37 -4.85477e-38 2.8125e-38 1.08487e-38 1.18341e-39 -2.81498e-40 -1.14686e-40 -9.92119e-42 2.70451e-42 7.18866e-43 2.10195e-44 -0 -0 0 0 0 0 0 0 0 0 0 0 0 0 0 0 0 0 0 0 0 0 0 0 0 0 0 0 0 0 0 0 0 0 0 0 0 0 0 0 0 0 0 0 0 0 0 0 0 0 0 0 0 0 0 0 0 0 0 0 0 0 0 0 0 0 0 0 0 0 0 0 0 0 0 
0 0 0 0 0 0 0 0 0 0 0 0 0 0 0 0 0 0 0 0 0 0 0 0 0 0 0 0 0 0 0 0 0 0 0 0 0 0 0 0 0 0 0 0 0 0 0 0 0 0 0 0 0 0 0 0 0 0 0 0 0 0 0 0 0 0 0 0 0 0 0 0 0 -0 -0 1.00893e-43 1.46856e-42 2.94553e-42 -3.0673e-41 -2.14547e-40 -1.84792e-40 4.05152e-39 2.18041e-38 1.93626e-38 -2.99016e-37 -1.68675e-36 -3.44727e-36 6.04039e-36 6.83957e-35 2.57366e-34 5.86833e-34 7.53194e-34 -1.88964e-34 -3.86335e-33 -1.19812e-32 -2.52791e-32 -4.26999e-32 -6.1475e-32 -7.80774e-32 -8.93762e-32 -9.33657e-32 -8.93762e-32 -7.80774e-32 -6.1475e-32 -4.26999e-32 -2.52791e-32 -1.19812e-32 -3.86335e-33 -1.88964e-34 7.53194e-34 5.86833e-34 2.57366e-34 6.83957e-35 6.04039e-36 -3.44727e-36 -1.68675e-36 -2.99016e-37 1.93626e-38 2.18041e-38 4.05152e-39 -1.84792e-40 -2.14547e-40 -3.0673e-41 2.94553e-42 1.46856e-42 1.00893e-43 -0 -0 0 0 0 0 0 0 0 0 0 0 0 0 0 0 0 0 0 0 0 0 0 0 0 0 0 0 0 0 0 0 0 0 0 0 0 0 0 0 0 0 0 0 0 0 0 0 0 0 0 0 0 0 0 0 0 0 0 0 0 0 0 0 0 0 0 0 0 0 0 0 0 0 
0 0 0 0 0 0 0 0 0 0 0 0 0 0 0 0 0 0 0 0 0 0 0 0 0 0 0 0 0 0 0 0 0 0 0 0 0 0 0 0 0 0 0 0 0 0 0 0 0 0 0 0 0 0 0 0 0 0 0 0 0 0 0 0 0 0 0 0 0 0 0 -0 -0 0 2.67648e-43 2.49711e-42 1.38729e-42 -7.14732e-41 -3.43262e-40 3.8801e-40 9.92963e-39 3.45275e-38 -5.35952e-38 -9.00961e-37 -3.15327e-36 -1.02661e-37 4.51336e-35 2.1323e-34 4.89546e-34 2.0005e-34 -3.01655e-33 -1.38109e-32 -3.75241e-32 -7.5671e-32 -1.21225e-31 -1.58818e-31 -1.7224e-31 -1.5517e-31 -1.17163e-31 -7.97072e-32 -6.42547e-32 -7.97072e-32 -1.17163e-31 -1.5517e-31 -1.7224e-31 -1.58818e-31 -1.21225e-31 -7.5671e-32 -3.75241e-32 -1.38109e-32 -3.01655e-33 2.0005e-34 4.89546e-34 2.1323e-34 4.51336e-35 -1.02661e-37 -3.15327e-36 -9.00961e-37 -5.35952e-38 3.45275e-38 9.92963e-39 3.8801e-40 -3.43262e-40 -7.14732e-41 1.38729e-42 2.49711e-42 2.67648e-43 0 -0 -0 0 0 0 0 0 0 0 0 0 0 0 0 0 0 0 0 0 0 0 0 0 0 0 0 0 0 0 0 0 0 0 0 0 0 0 0 0 0 0 0 0 0 0 0 0 0 0 0 0 0 0 0 0 0 0 0 0 0 0 0 0 0 0 0 0 0 0 0 0 0 
0 0 0 0 0 0 0 0 0 0 0 0 0 0 0 0 0 0 0 0 0 0 0 0 0 0 0 0 0 0 0 0 0 0 0 0 0 0 0 0 0 0 0 0 0 0 0 0 0 0 0 0 0 0 0 0 0 0 0 0 0 0 0 0 0 0 0 0 0 0 -0 -0 1.4013e-45 5.73131e-43 3.85497e-42 -4.40288e-42 -1.42324e-40 -4.60482e-40 1.96098e-39 2.00344e-38 3.91721e-38 -2.72859e-37 -2.00668e-36 -3.84287e-36 1.71811e-35 1.38976e-34 3.99166e-34 9.77952e-35 -3.9851e-33 -1.91679e-32 -5.29275e-32 -9.66585e-32 -1.00109e-31 4.14643e-32 4.59385e-31 1.24169e-30 2.36118e-30 3.65281e-30 4.85843e-30 5.71173e-30 6.01943e-30 5.71173e-30 4.85843e-30 3.65281e-30 2.36118e-30 1.24169e-30 4.59385e-31 4.14643e-32 -1.00109e-31 -9.66585e-32 -5.29275e-32 -1.91679e-32 -3.9851e-33 9.77952e-35 3.99166e-34 1.38976e-34 1.71811e-35 -3.84287e-36 -2.00668e-36 -2.72859e-37 3.91721e-38 2.00344e-38 1.96098e-39 -4.60482e-40 -1.42324e-40 -4.40288e-42 3.85497e-42 5.73131e-43 1.4013e-45 -0 -0 0 0 0 0 0 0 0 0 0 0 0 0 0 0 0 0 0 0 0 0 0 0 0 0 0 0 0 0 0 0 0 0 0 0 0 0 0 0 0 0 0 0 0 0 0 0 0 0 0 0 0 0 0 0 0 0 0 0 0 0 0 0 0 0 0 0 0 0 0 
0 0 0 0 0 0 0 0 0 0 0 0 0 0 0 0 0 0 0 0 0 0 0 0 0 0 0 0 0 0 0 0 0 0 0 0 0 0 0 0 0 0 0 0 0 0 0 0 0 0 0 0 0 0 0 0 0 0 0 0 0 0 0 0 0 0 0 0 0 -0 -0 2.10195e-44 1.12945e-42 5.36417e-42 -1.80894e-41 -2.51735e-40 -4.70253e-40 5.30427e-39 3.46921e-38 1.24365e-38 -7.62276e-37 -3.58125e-36 -3.84079e-37 6.48525e-35 2.99922e-34 3.67735e-34 -2.50269e-33 -1.63022e-32 -4.8691e-32 -7.12477e-32 6.08336e-32 6.88975e-31 2.30869e-30 5.30974e-30 9.60717e-30 1.44747e-29 1.88171e-29 2.17606e-29 2.31315e-29 2.3451e-29 2.34472e-29 2.3451e-29 2.31315e-29 2.17606e-29 1.88171e-29 1.44747e-29 9.60717e-30 5.30974e-30 2.30869e-30 6.88975e-31 6.08336e-32 -7.12477e-32 -4.8691e-32 -1.63022e-32 -2.50269e-33 3.67735e-34 2.99922e-34 6.48525e-35 -3.84079e-37 -3.58125e-36 -7.62276e-37 1.24365e-38 3.46921e-38 5.30427e-39 -4.70253e-40 -2.51735e-40 -1.80894e-41 5.36417e-42 1.12945e-42 2.10195e-44 -0 -0 0 0 0 0 0 0 0 0 0 0 0 0 0 0 0 0 0 0 0 0 0 0 0 0 0 0 0 0 0 0 0 0 0 0 0 0 0 0 0 0 0 0 0 0 0 0 0 0 0 0 0 0 0 0 0 0 0 0 0 0 0 0 0 0 0 0 0 0 
0 0 0 0 0 0 0 0 0 0 0 0 0 0 0 0 0 0 0 0 0 0 0 0 0 0 0 0 0 0 0 0 0 0 0 0 0 0 0 0 0 0 0 0 0 0 0 0 0 0 0 0 0 0 0 0 0 0 0 0 0 0 0 0 0 0 0 0 -0 -0 7.14662e-44 1.88475e-42 6.63655e-42 -4.40877e-41 -4.03711e-40 -1.95185e-40 1.14047e-38 5.20856e-38 -8.80122e-38 -1.66838e-36 -5.09068e-36 1.38544e-35 1.62413e-34 4.71552e-34 -5.87562e-34 -9.86068e-33 -3.74384e-32 -5.32812e-32 1.5262e-31 1.17057e-30 3.91609e-30 8.78694e-30 1.39541e-29 1.39447e-29 4.59798e-31 -3.37967e-29 -9.00887e-29 -1.6074e-28 -2.30517e-28 -2.81734e-28 -3.00542e-28 -2.81734e-28 -2.30517e-28 -1.6074e-28 -9.00887e-29 -3.37967e-29 4.59798e-31 1.39447e-29 1.39541e-29 8.78694e-30 3.91609e-30 1.17057e-30 1.5262e-31 -5.32812e-32 -3.74384e-32 -9.86068e-33 -5.87562e-34 4.71552e-34 1.62413e-34 1.38544e-35 -5.09068e-36 -1.66838e-36 -8.80122e-38 5.20856e-38 1.14047e-38 -1.95185e-40 -4.03711e-40 -4.40877e-41 6.63655e-42 1.88475e-42 7.14662e-44 -0 -0 0 0 0 0 0 0 0 0 0 0 0 0 0 0 0 0 0 0 0 0 0 0 0 0 0 0 0 0 0 0 0 0 0 0 0 0 0 0 0 0 0 0 0 0 0 0 0 0 0 0 0 0 0 0 0 0 0 0 0 0 0 0 0 0 0 0 0 
0 0 0 0 0 0 0 0 0 0 0 0 0 0 0 0 0 0 0 0 0 0 0 0 0 0 0 0 0 0 0 0 0 0 0 0 0 0 0 0 0 0 0 0 0 0 0 0 0 0 0 0 0 0 0 0 0 0 0 0 0 0 0 0 0 0 0 -0 -0 1.75162e-43 3.04222e-42 7.0135e-42 -8.80884e-41 -5.92686e-40 6.3932e-40 2.13007e-38 6.64091e-38 -3.27138e-37 -3.10227e-36 -5.00655e-36 4.96294e-35 3.2127e-34 4.37843e-34 -3.84435e-33 -2.45425e-32 -5.41677e-32 8.30284e-32 1.03972e-30 3.93546e-30 8.52368e-30 7.91298e-30 -1.85581e-29 -1.06963e-28 -2.96642e-28 -6.06101e-28 -1.01299e-27 -1.45598e-27 -1.86011e-27 -2.16771e-27 -2.35311e-27 -2.41411e-27 -2.35311e-27 -2.16771e-27 -1.86011e-27 -1.45598e-27 -1.01299e-27 -6.06101e-28 -2.96642e-28 -1.06963e-28 -1.85581e-29 7.91298e-30 8.52368e-30 3.93546e-30 1.03972e-30 8.30284e-32 -5.41677e-32 -2.45425e-32 -3.84435e-33 4.37843e-34 3.2127e-34 4.96294e-35 -5.00655e-36 -3.10227e-36 -3.27138e-37 6.64091e-38 2.13007e-38 6.3932e-40 -5.92686e-40 -8.80884e-41 7.0135e-42 3.04222e-42 1.75162e-43 -0 -0 0 0 0 0 0 0 0 0 0 0 0 0 0 0 0 0 0 0 0 0 0 0 0 0 0 0 0 0 0 0 0 0 0 0 0 0 0 0 0 0 0 0 0 0 0 0 0 0 0 0 0 0 0 0 0 0 0 0 0 0 0 0 0 0 0 0 
0 0 0 0 0 0 0 0 0 0 0 0 0 0 0 0 0 0 0 0 0 0 0 0 0 0 0 0 0 0 0 0 0 0 0 0 0 0 0 0 0 0 0 0 0 0 0 0 0 0 0 0 0 0 0 0 0 0 0 0 0 0 0 0 0 0 -0 0 3.25101e-43 4.50097e-42 5.48889e-42 -1.56211e-40 -7.97406e-40 2.41317e-39 3.58082e-38 6.57241e-38 -7.92976e-37 -5.05085e-36 -2.89938e-37 1.21339e-34 5.23876e-34 -2.75615e-34 -1.13504e-32 -4.56368e-32 -2.13103e-32 5.76282e-31 2.93722e-30 6.80041e-30 1.22347e-30 -5.30649e-29 -2.34151e-28 -6.26781e-28 -1.22643e-27 -1.82724e-27 -2.00738e-27 -1.29223e-27 5.60912e-28 3.3339e-27 6.33945e-27 8.66313e-27 9.53699e-27 8.66313e-27 6.33945e-27 3.3339e-27 5.60912e-28 -1.29223e-27 -2.00738e-27 -1.82724e-27 -1.22643e-27 -6.26781e-28 -2.34151e-28 -5.30649e-29 1.22347e-30 6.80041e-30 2.93722e-30 5.76282e-31 -2.13103e-32 -4.56368e-32 -1.13504e-32 -2.75615e-34 5.23876e-34 1.21339e-34 -2.89938e-37 -5.05085e-36 -7.92976e-37 6.57241e-38 3.58082e-38 2.41317e-39 -7.97406e-40 -1.56211e-40 5.48889e-42 4.50097e-42 3.25101e-43 0 -0 0 0 0 0 0 0 0 0 0 0 0 0 0 0 0 0 0 0 0 0 0 0 0 0 0 0 0 0 0 0 0 0 0 0 0 0 0 0 0 0 0 0 0 0 0 0 0 0 0 0 0 0 0 0 0 0 0 0 0 0 0 0 0 0 0 
0 0 0 0 0 0 0 0 0 0 0 0 0 0 0 0 0 0 0 0 0 0 0 0 0 0 0 0 0 0 0 0 0 0 0 0 0 0 0 0 0 0 0 0 0 0 0 0 0 0 0 0 0 0 0 0 0 0 0 0 0 0 0 0 -0 -0 0 6.17973e-43 6.32686e-42 8.26766e-43 -2.53861e-40 -9.7607e-40 5.59885e-39 5.51927e-38 3.05883e-38 -1.5876e-36 -7.25031e-36 1.39618e-35 2.43596e-34 6.8808e-34 -2.49376e-33 -2.49821e-32 -6.20231e-32 1.61313e-31 1.71458e-30 5.4459e-30 2.57708e-30 -5.12621e-29 -2.60364e-28 -7.23766e-28 -1.24879e-27 -8.55176e-28 2.56184e-27 1.18355e-26 2.92254e-26 5.48684e-26 8.60638e-26 1.17955e-25 1.45144e-25 1.63229e-25 1.69544e-25 1.63229e-25 1.45144e-25 1.17955e-25 8.60638e-26 5.48684e-26 2.92254e-26 1.18355e-26 2.56184e-27 -8.55176e-28 -1.24879e-27 -7.23766e-28 -2.60364e-28 -5.12621e-29 2.57708e-30 5.4459e-30 1.71458e-30 1.61313e-31 -6.20231e-32 -2.49821e-32 -2.49376e-33 6.8808e-34 2.43596e-34 1.39618e-35 -7.25031e-36 -1.5876e-36 3.05883e-38 5.51927e-38 5.59885e-39 -9.7607e-40 -2.53861e-40 8.26766e-43 6.32686e-42 6.17973e-43 0 -0 -0 0 0 0 0 0 0 0 0 0 0 0 0 0 0 0 0 0 0 0 0 0 0 0 0 0 0 0 0 0 0 0 0 0 0 0 0 0 0 0 0 0 0 0 0 0 0 0 0 0 0 0 0 0 0 0 0 0 0 0 0 0 0 0 
0 0 0 0 0 0 0 0 0 0 0 0 0 0 0 0 0 0 0 0 0 0 0 0 0 0 0 0 0 0 0 0 0 0 0 0 0 0 0 0 0 0 0 0 0 0 0 0 0 0 0 0 0 0 0 0 0 0 0 0 0 0 0 -0 -0 1.4013e-45 9.90718e-43 8.47645e-42 -8.47225e-42 -3.85042e-40 -1.06551e-39 1.07114e-38 7.87187e-38 -6.65328e-38 -2.80768e-36 -9.02342e-36 4.46867e-35 4.25328e-34 6.24701e-34 -7.42352e-33 -4.52842e-32 -4.43403e-32 6.56273e-31 3.67647e-30 6.18529e-30 -2.44195e-29 -1.91617e-28 -6.05837e-28 -8.84919e-28 1.07145e-27 1.0459e-26 3.50943e-26 8.10715e-26 1.45716e-25 2.13311e-25 2.59318e-25 2.62969e-25 2.20805e-25 1.5171e-25 8.90663e-26 6.39907e-26 8.90663e-26 1.5171e-25 2.20805e-25 2.62969e-25 2.59318e-25 2.13311e-25 1.45716e-25 8.10715e-26 3.50943e-26 1.0459e-26 1.07145e-27 -8.84919e-28 -6.05837e-28 -1.91617e-28 -2.44195e-29 6.18529e-30 3.67647e-30 6.56273e-31 -4.43403e-32 -4.52842e-32 -7.42352e-33 6.24701e-34 4.25328e-34 4.46867e-35 -9.02342e-36 -2.80768e-36 -6.65328e-38 7.87187e-38 1.07114e-38 -1.06551e-39 -3.85042e-40 -8.47225e-42 8.47645e-42 9.90718e-43 1.4013e-45 -0 -0 0 0 0 0 0 0 0 0 0 0 0 0 0 0 0 0 0 0 0 0 0 0 0 0 0 0 0 0 0 0 0 0 0 0 0 0 0 0 0 0 0 0 0 0 0 0 0 0 0 0 0 0 0 0 0 0 0 0 0 0 0 0 
0 0 0 0 0 0 0 0 0 0 0 0 0 0 0 0 0 0 0 0 0 0 0 0 0 0 0 0 0 0 0 0 0 0 0 0 0 0 0 0 0 0 0 0 0 0 0 0 0 0 0 0 0 0 0 0 0 0 0 0 0 0 -0 -0 8.40779e-45 1.45455e-42 1.07283e-41 -2.40211e-41 -5.51485e-40 -9.81478e-40 1.82467e-38 1.04265e-37 -2.60763e-37 -4.52224e-36 -9.16327e-36 1.00477e-34 6.6183e-34 6.77382e-36 -1.64926e-32 -6.92131e-32 6.28696e-32 1.65894e-30 6.09713e-30 -1.08098e-30 -9.90127e-29 -4.33314e-28 -7.35268e-28 1.44293e-27 1.35581e-26 4.7751e-26 1.08793e-25 1.66244e-25 1.25394e-25 -1.70682e-25 -8.85676e-25 -2.09918e-24 -3.73374e-24 -5.54775e-24 -7.20061e-24 -8.35457e-24 -8.76814e-24 -8.35457e-24 -7.20061e-24 -5.54775e-24 -3.73374e-24 -2.09918e-24 -8.85676e-25 -1.70682e-25 1.25394e-25 1.66244e-25 1.08793e-25 4.7751e-26 1.35581e-26 1.44293e-27 -7.35268e-28 -4.33314e-28 -9.90127e-29 -1.08098e-30 6.09713e-30 1.65894e-30 6.28696e-32 -6.92131e-32 -1.64926e-32 6.77382e-36 6.6183e-34 1.00477e-34 -9.16327e-36 -4.52224e-36 -2.60763e-37 1.04265e-37 1.82467e-38 -9.81478e-40 -5.51485e-40 -2.40211e-41 1.07283e-41 1.45455e-42 8.40779e-45 -0 -0 0 0 0 0 0 0 0 0 0 0 0 0 0 0 0 0 0 0 0 0 0 0 0 0 0 0 0 0 0 0 0 0 0 0 0 0 0 0 0 0 0 0 0 0 0 0 0 0 0 0 0 0 0 0 0 0 0 0 0 0 0 
0 0 0 0 0 0 0 0 0 0 0 0 0 0 0 0 0 0 0 0 0 0 0 0 0 0 0 0 0 0 0 0 0 0 0 0 0 0 0 0 0 0 0 0 0 0 0 0 0 0 0 0 0 0 0 0 0 0 0 0 0 -0 -0 2.10195e-44 2.10055e-42 1.30727e-41 -4.69211e-41 -7.50901e-40 -6.25058e-40 2.86093e-38 1.28254e-37 -5.91363e-37 -6.74352e-36 -5.89973e-36 1.90313e-34 9.2382e-34 -1.64777e-33 -3.09852e-32 -8.706e-32 3.47001e-31 3.32883e-30 7.4824e-30 -2.78836e-29 -2.48091e-28 -6.86015e-28 3.17243e-28 9.94689e-27 4.21062e-26 9.69409e-26 9.24718e-26 -2.4223e-25 -1.41884e-24 -4.04921e-24 -8.48878e-24 -1.44693e-23 -2.10354e-23 -2.69219e-23 -3.11657e-23 -3.35391e-23 -3.45026e-23 -3.47223e-23 -3.45026e-23 -3.35391e-23 -3.11657e-23 -2.69219e-23 -2.10354e-23 -1.44693e-23 -8.48878e-24 -4.04921e-24 -1.41884e-24 -2.4223e-25 9.24718e-26 9.69409e-26 4.21062e-26 9.94689e-27 3.17243e-28 -6.86015e-28 -2.48091e-28 -2.78836e-29 7.4824e-30 3.32883e-30 3.47001e-31 -8.706e-32 -3.09852e-32 -1.64777e-33 9.2382e-34 1.90313e-34 -5.89973e-36 -6.74352e-36 -5.91363e-37 1.28254e-37 2.86093e-38 -6.25058e-40 -7.50901e-40 -4.69211e-41 1.30727e-41 2.10055e-42 2.10195e-44 -0 -0 0 0 0 0 0 0 0 0 0 0 0 0 0 0 0 0 0 0 0 0 0 0 0 0 0 0 0 0 0 0 0 0 0 0 0 0 0 0 0 0 0 0 0 0 0 0 0 0 0 0 0 0 0 0 0 0 0 0 0 0 