<?xml version="1.0"?>
<VTKFile type="ImageData" version="0.1" byte_order="LittleEndian">
<ImageData WholeExtent="0 199 0 199 0 0" Origin="0 0 0" Spacing="15 15 0">
<Piece Extent="0 199 0 199 0 0">
<PointData Scalars="Amplitude">
<DataArray type="Float32" Name="Amplitude" format="ascii">
0 0 0 0 0 0 0 0 0 0 0 0 0 0 0 0 0 0 0 0 0 0 0 0 0 0 0 0 0 0 0 0 0 0 0 0 0 0 0 0 0 0 0 0 0 0 0 0 0 0 0 0 0 0 0 0 0 0 0 0 0 0 0 0 0 0 0 0 0 0 0 0 0 0 0 0 0 0 0 0 0 0 0 0 0 0 0 0 0 0 0 0 0 0 0 0 0 0 0 0 0 0 0 0 0 0 0 0 0 0 0 0 0 0 0 0 0 0 0 0 0 0 0 0 0 0 0 0 0 0 0 0 0 0 0 0 0 0 0 0 0 0 0 0 0 0 0 0 0 0 0 0 0 0 0 0 0 0 0 0 0 0 0 0 0 0 0 0 0 0 0 0 0 0 0 0 0 0 0 0 0 0 0 0 0 0 0 0 0 0 0 0 0 0 0 0 0 0 0 0 
0 0 0 0 0 0 0 0 0 0 0 0 0 0 0 0 0 0 0 0 0 0 0 0 0 0 0 0 0 0 0 0 0 0 0 0 0 0 0 0 0 0 0 0 0 0 0 0 0 0 0 0 0 0 0 0 0 0 0 0 0 0 0 0 0 0 0 0 0 0 0 0 0 0 0 0 0 0 0 0 0 0 0 0 0 0 0 0 0 0 0 0 0 0 0 0 0 0 0 0 0 0 0 0 0 0 0 0 0 0 0 0 0 0 0 0 0 0 0 0 0 0 0 0 0 0 0 0 0 0 0 0 0 0 0 0 0 0 0 0 0 0 0 0 0 0 0 0 0 0 0 0 0 0 0 0 0 0 0 0 0 0 0 0 0 0 0 0 0 0 0 0 0 0 0 0 0 0 0 0 0 0 0 0 0 0 0 0 0 0 0 0 0 0 0 0 0 0 0 0 
0 0 1.70819e-08 1.55346e-07 6.28485e-07 2.98932e-06 1.06217e-05 2.85194e-05 5.62231e-05 6.8158e-05 -1.27108e-05 -0.000313308 -0.000928317 -0.00175536 -0.00237588 -0.00219218 -0.000871946 0.00121317 0.00304729 0.00365442 0.00287454 0.00149089 0.000551632 0.000521377 0.0010323 0.00136816 0.00113374 0.00050558 -3.65813e-05 -0.000162094 7.33537e-05 0.000348864 0.000385004 0.000155475 -0.000140485 -0.000273452 -0.000164487 7.94883e-05 0.000271564 0.000288027 0.000142071 -4.75791e-05 -0.000151096 -0.000111623 3.12344e-05 0.000180305 0.000246377 0.000197404 6.75205e-05 -7.07368e-05 -0.000148963 -0.000135738 -4.59097e-05 7.30953e-05 0.000166914 0.0001981 0.000158601 6.83075e-05 -3.67121e-05 -0.000119599 -0.000155345 -0.000136969 -7.46955e-05 9.9422e-06 9.21079e-05 0.000150908 0.000174032 0.000159217 0.000112923 4.72682e-05 -2.35856e-05 -8.66242e-05 -0.000132212 -0.000155121 -0.000154481 -0.000132989 -9.57277e-05 -4.8903e-05 1.26968e-06 4.93759e-05 9.12821e-05 0.000124294 0.000147126 0.000159701 0.000162825 0.000157875 0.000146528 0.000130543 0.000111598 9.11634e-05 7.04529e-05 5.04126e-05 3.17287e-05 1.48673e-05 1.15132e-07 -1.23666e-05 -2.25244e-05 -3.03624e-05 -3.59134e-05 -3.92193e-05 -4.03149e-05 -3.92193e-05 -3.59134e-05 -3.03621e-05 -2.25244e-05 -1.23666e-05 1.15132e-07 1.48675e-05 3.17291e-05 5.04133e-05 7.0454e-05 9.11652e-05 0.000111599 0.000130544 0.000146529 0.000157876 0.000162826 0.000159702 0.000147126 0.000124293 9.12826e-05 4.93758e-05 1.26738e-06 -4.89101e-05 -9.57398e-05 -0.000133004 -0.000154499 -0.000155142 -0.000132234 -8.66479e-05 -2.36103e-05 4.72402e-05 0.000112896 0.000159201 0.00017403 0.000150912 9.21118e-05 9.94634e-06 -7.46848e-05 -0.000136952 -0.000155326 -0.000119583 -3.67028e-05 6.83109e-05 0.000158604 0.000198118 0.000166973 7.32091e-05 -4.58202e-05 -0.000136028 -0.000150538 -7.52674e-05 5.77275e-05 0.000180242 0.000221581 0.000151366 6.31755e-06 -0.00012121 -0.000135373 -3.70726e-06 0.000206071 0.000354849 0.000321887 0.000101261 -0.000170438 -0.000295258 -0.000163229 0.000141158 0.000379284 0.00034563 6.63827e-05 -0.000174765 -5.28404e-05 0.000488184 0.00111368 0.00135006 0.00102036 0.000515443 0.000544989 0.00147452 0.00284504 0.00361859 0.00301852 0.00120241 -0.000863243 -0.00217169 -0.00235417 -0.00173957 -0.000920085 -0.000310573 -1.26172e-05 6.75573e-05 5.57348e-05 2.82785e-05 1.05586e-05 3.07056e-06 9.06344e-07 1.65681e-07 0 0 
0 0 1.55346e-07 9.53501e-07 3.32808e-06 1.25958e-05 3.67744e-05 7.9164e-05 0.000109121 1.30818e-05 -0.000424915 -0.00141297 -0.00286413 -0.0041143 -0.00405295 -0.00188792 0.00192864 0.00560497 0.0071986 0.00619141 0.00390629 0.00227433 0.00216546 0.00289529 0.00319869 0.00250453 0.00129233 0.000427772 0.000321261 0.000672695 0.000879592 0.000614552 4.87447e-05 -0.000386873 -0.000406672 -7.97126e-05 0.000281139 0.000397267 0.000224135 -5.86053e-05 -0.000216301 -0.000135477 0.000115687 0.00035958 0.000440231 0.000318359 7.92002e-05 -0.000134332 -0.000209845 -0.000121768 6.78659e-05 0.00025341 0.000343247 0.000300479 0.000151502 -3.4748e-05 -0.000181702 -0.000236721 -0.000187556 -6.05138e-05 9.47246e-05 0.000225389 0.000292799 0.000281725 0.000200861 7.6397e-05 -5.79133e-05 -0.000170433 -0.000238727 -0.000252945 -0.000215533 -0.000138307 -3.84052e-05 6.58961e-05 0.000158543 0.000227902 0.000267583 0.000276185 0.000256398 0.000213672 0.000154886 8.7137e-05 1.69273e-05 -5.04137e-05 -0.000110957 -0.000162202 -0.000202966 -0.000233135 -0.000253398 -0.000264953 -0.000269307 -0.000268056 -0.000262808 -0.000255025 -0.000245939 -0.000236594 -0.000227847 -0.000220377 -0.000214701 -0.000211163 -0.00020996 -0.000211163 -0.000214701 -0.000220376 -0.000227847 -0.000236594 -0.000245939 -0.000255025 -0.000262808 -0.000268054 -0.000269305 -0.000264951 -0.000253397 -0.000233133 -0.000202966 -0.000162201 -0.000110956 -5.04125e-05 1.69276e-05 8.71384e-05 0.000154889 0.000213673 0.000256387 0.000276162 0.000267547 0.000227858 0.000158492 6.58418e-05 -3.84586e-05 -0.000138363 -0.000215593 -0.000253007 -0.000238769 -0.000170447 -5.79092e-05 7.64087e-05 0.000200875 0.000281749 0.000292834 0.000225426 9.47545e-05 -6.04995e-05 -0.000187555 -0.000236718 -0.000181664 -3.46205e-05 0.000151765 0.000300761 0.000342886 0.000250589 5.90323e-05 -0.000141788 -0.000246255 -0.000188799 1.30176e-05 0.000257497 0.000409837 0.000383502 0.000203288 1.32725e-06 -6.64414e-05 6.17109e-05 0.000286365 0.000399907 0.000246593 -0.000121676 -0.000436741 -0.000403376 3.58979e-05 0.000595852 0.000853475 0.000644165 0.00029494 0.000399398 0.00126211 0.00246833 0.00316032 0.00286384 0.00214315 0.00225131 0.0038676 0.00613176 0.00713107 0.0055538 0.00191209 -0.0018698 -0.00401591 -0.00407735 -0.00283876 -0.00140061 -0.000421253 1.29418e-05 0.000108175 7.8518e-05 3.66078e-05 1.29411e-05 4.27864e-06 9.45222e-07 0 0 
0 0 6.28485e-07 3.32808e-06 1.07275e-05 3.52412e-05 8.7975e-05 0.000149964 0.000100943 -0.000348843 -0.00157508 -0.00364553 -0.00575402 -0.00612449 -0.00305654 0.00326612 0.00996145 0.0131436 0.0111652 0.00625325 0.00256234 0.00242807 0.00460628 0.00605482 0.00506161 0.00252176 0.000562551 0.000380733 0.00138823 0.00209837 0.00160591 0.000261643 -0.000859583 -0.00099535 -0.000273777 0.000540027 0.000755007 0.000274118 -0.00043472 -0.000783059 -0.000514164 0.000159846 0.000768619 0.000931744 0.000590528 -5.38051e-07 -0.000470221 -0.000561696 -0.000259395 0.000238001 0.000652684 0.000779284 0.000574195 0.000152372 -0.000287534 -0.000561009 -0.000571929 -0.00033743 3.56883e-05 0.000403774 0.000642003 0.000682821 0.000527976 0.000236632 -0.000101382 -0.000395278 -0.000577225 -0.000615102 -0.000513619 -0.000306481 -4.37161e-05 0.000221576 0.000443917 0.000592166 0.0006518 0.000623845 0.000521384 0.000364899 0.000177792 -1.7404e-05 -0.000201663 -0.000360846 -0.000486165 -0.000573868 -0.000624185 -0.000640254 -0.000627154 -0.000590982 -0.000538101 -0.000474432 -0.000405189 -0.000334722 -0.000266499 -0.000203101 -0.000146248 -9.71164e-05 -5.63927e-05 -2.45029e-05 -1.67542e-06 1.20149e-05 1.65734e-05 1.20139e-05 -1.67429e-06 -2.4502e-05 -5.63917e-05 -9.71155e-05 -0.000146247 -0.0002031 -0.000266497 -0.00033472 -0.000405187 -0.000474431 -0.000538102 -0.000590982 -0.000627154 -0.000640252 -0.000624183 -0.000573868 -0.000486164 -0.000360842 -0.000201657 -1.74054e-05 0.000177763 0.00036485 0.000521317 0.000623764 0.000651709 0.000592078 0.000443834 0.000221483 -4.38177e-05 -0.000306563 -0.000513642 -0.000615087 -0.000577204 -0.000395252 -0.000101344 0.000236689 0.000528043 0.000682869 0.000642029 0.000403771 3.56712e-05 -0.000337413 -0.000571783 -0.000560629 -0.000286936 0.000152564 0.000571755 0.000769215 0.000626769 0.000186532 -0.000342382 -0.000670331 -0.000580039 -6.9562e-05 0.000607945 0.00106101 0.000993521 0.000420188 -0.000298406 -0.000671749 -0.000436909 0.000199982 0.000670055 0.000486053 -0.000293214 -0.00100397 -0.000881363 0.000221812 0.00156056 0.00206136 0.00136064 0.000351517 0.000535691 0.00247922 0.00499941 0.00599 0.0045615 0.00240662 0.0025388 0.00619344 0.0110596 0.0130217 0.00987088 0.00323763 -0.00302805 -0.00606924 -0.0057029 -0.00361352 -0.00156141 -0.000345873 0.000100067 0.000148798 8.76785e-05 3.61713e-05 1.29529e-05 3.19654e-06 0 0 
0 0 2.98932e-06 1.25958e-05 3.52412e-05 8.86358e-05 0.000153794 9.29751e-05 -0.000445016 -0.00193755 -0.00447776 -0.00697844 -0.00698615 -0.00216215 0.00703473 0.0161618 0.0195473 0.0153807 0.00787398 0.00346954 0.00471968 0.00841017 0.00965301 0.0069953 0.00314474 0.00142771 0.00243001 0.00403177 0.0039725 0.00200626 -0.000240339 -0.00108945 -0.000327933 0.000856882 0.00114345 0.000224472 -0.0010964 -0.00173076 -0.00121831 -2.86102e-06 0.00101582 0.00118769 0.000525872 -0.000400968 -0.000924858 -0.000720263 4.29404e-05 0.000871799 0.00128202 0.00106863 0.000379443 -0.000409186 -0.000910454 -0.000912989 -0.000453542 0.000234626 0.000848281 0.00114682 0.00103653 0.000582983 -3.63056e-05 -0.00060954 -0.000964076 -0.00101318 -0.000767491 -0.000315821 0.000212061 0.000684779 0.00100101 0.00110745 0.00100133 0.000720842 0.000330179 -9.75475e-05 -0.000494708 -0.000809449 -0.00101031 -0.00108621 -0.00104363 -0.000901408 -0.000685692 -0.000424675 -0.000145328 0.000129385 0.000381925 0.000600601 0.000779281 0.000916183 0.00101302 0.00107376 0.00110408 0.00111009 0.00109821 0.00107437 0.00104375 0.00101076 0.00097911 0.000951663 0.000930623 0.000917446 0.000912939 0.000917447 0.00093063 0.000951665 0.000979112 0.00101076 0.00104375 0.00107438 0.00109821 0.00111009 0.00110408 0.00107375 0.00101302 0.000916182 0.000779285 0.000600607 0.000381926 0.000129389 -0.000145321 -0.000424671 -0.000685699 -0.000901448 -0.00104371 -0.00108632 -0.00101044 -0.000809593 -0.000494841 -9.7665e-05 0.000330046 0.00072068 0.00100118 0.00110741 0.00100105 0.00068483 0.000212123 -0.000315748 -0.0007674 -0.00101309 -0.000964014 -0.00060951 -3.62991e-05 0.000582967 0.00103658 0.00114706 0.000848912 0.000235594 -0.000453381 -0.000917548 -0.000928429 -0.000454746 0.000289969 0.000926124 0.00109883 0.000692785 -5.81334e-05 -0.000667257 -0.000682098 -8.14551e-06 0.000955965 0.00151837 0.00115801 -4.44169e-05 -0.00135833 -0.00186641 -0.0011716 0.000199742 0.00112518 0.000814371 -0.000390095 -0.00114693 -0.000278494 0.00197832 0.00393267 0.00396773 0.00238244 0.00139584 0.00309893 0.00691576 0.00955419 0.00832994 0.00467841 0.00344088 0.00780382 0.0152415 0.0193712 0.0160178 0.00697334 -0.0021419 -0.00692415 -0.0069173 -0.00443892 -0.00192087 -0.000441092 9.27177e-05 0.000153964 9.07915e-05 3.81581e-05 1.14744e-05 0 0 
0 0 1.06217e-05 3.67744e-05 8.7975e-05 0.000153794 8.68235e-05 -0.000521809 -0.00226491 -0.00528512 -0.00817369 -0.0076013 -0.000339108 0.0127623 0.0249075 0.0277068 0.0193293 0.00758189 0.00280245 0.00745037 0.014268 0.0150011 0.0091591 0.00317448 0.00241575 0.00588492 0.00852917 0.00706483 0.00281706 -0.000427832 -0.000458502 0.0016006 0.00293379 0.00188546 -0.000757053 -0.00283751 -0.00287018 -0.00116144 0.00070658 0.00129534 0.000366591 -0.0011368 -0.0019579 -0.00146174 1.24281e-05 0.00150287 0.00211708 0.00156823 0.000264246 -0.00101447 -0.00158845 -0.0012179 -0.000160909 0.00102308 0.00177721 0.00179461 0.00111343 5.04495e-05 -0.00096463 -0.00156805 -0.00158267 -0.00104928 -0.000178588 0.00074191 0.00144629 0.00176134 0.00163719 0.00113829 0.000407321 -0.000381521 -0.00106686 -0.00153126 -0.00171531 -0.00161695 -0.00127967 -0.000776279 -0.00019127 0.000394803 0.00091599 0.00132626 0.00160081 0.00173375 0.00173427 0.00162208 0.001422 0.0011604 0.000862573 0.000550613 0.00024252 -4.86889e-05 -0.000314364 -0.000549237 -0.000751026 -0.000919793 -0.0010577 -0.00116743 -0.00125211 -0.00131459 -0.00135724 -0.00138195 -0.00139003 -0.00138195 -0.00135724 -0.00131459 -0.00125211 -0.00116743 -0.0010577 -0.000919796 -0.00075103 -0.000549239 -0.00031437 -4.86918e-05 0.000242521 0.000550624 0.000862591 0.00116042 0.00142202 0.0016221 0.00173429 0.00173375 0.00160076 0.00132612 0.000915804 0.000394596 -0.000191499 -0.000776484 -0.00127984 -0.00161714 -0.00171555 -0.00153146 -0.0010669 -0.00038141 0.000407462 0.00113845 0.00163737 0.00176149 0.00144643 0.000741977 -0.000178569 -0.00104928 -0.00158273 -0.00156801 -0.000964216 5.15283e-05 0.00111508 0.00179486 0.00176938 0.000992209 -0.00023923 -0.00137156 -0.00183201 -0.00132413 -3.0107e-05 0.00141948 0.00224322 0.00195449 0.000702491 -0.000744934 -0.00145227 -0.000975884 0.000225149 0.00102554 0.00048683 -0.00125861 -0.00289044 -0.00286661 -0.000835137 0.0017852 0.00285885 0.00156463 -0.000485377 -0.00048471 0.00271856 0.00694307 0.00840307 0.00580239 0.00237667 0.00313095 0.0090601 0.014852 0.0141336 0.00738682 0.00278571 0.00752217 0.0191623 0.0274637 0.0246891 0.0126513 -0.000335338 -0.00753485 -0.00810294 -0.00523954 -0.0022449 -0.000515541 8.96936e-05 0.000156556 8.4279e-05 3.17598e-05 0 0 
0 0 2.85194e-05 7.9164e-05 0.000149964 9.29751e-05 -0.000521809 -0.0023867 -0.00575221 -0.00901631 -0.0080207 0.00154855 0.0187124 0.0341752 0.0362312 0.0228177 0.00615477 0.00142634 0.010557 0.0207209 0.0198536 0.00995862 0.00271916 0.00486888 0.0116942 0.0143253 0.00992085 0.00335199 0.000728947 0.0030552 0.0062091 0.00591254 0.00189315 -0.00249285 -0.00390499 -0.0019965 0.000752848 0.00158323 -0.00020911 -0.00299961 -0.00444884 -0.0034008 -0.000602897 0.00205153 0.00295251 0.00178755 -0.000441748 -0.00221859 -0.00248121 -0.00116426 0.000907337 0.00258728 0.00304186 0.00211933 0.000328264 -0.00148748 -0.00256224 -0.00251459 -0.00144456 0.000178263 0.00173995 0.00271888 0.00284182 0.0021313 0.000850468 -0.000611938 -0.00187049 -0.00263948 -0.0027849 -0.00232975 -0.00142017 -0.000269075 0.000897373 0.0018855 0.00256088 0.00285906 0.00278117 0.0023786 0.00173491 0.000945402 0.000104289 -0.000708698 -0.00143195 -0.00202526 -0.00246869 -0.00275961 -0.00290874 -0.00293442 -0.00286013 -0.00270966 -0.0025076 -0.00227499 -0.00203049 -0.00178924 -0.001563 -0.00136019 -0.00118787 -0.00105034 -0.000950745 -0.000890627 -0.00087041 -0.000890625 -0.000950745 -0.00105033 -0.00118786 -0.00136019 -0.001563 -0.00178924 -0.00203049 -0.002275 -0.00250761 -0.00270967 -0.00286012 -0.00293439 -0.00290872 -0.00275957 -0.00246863 -0.00202521 -0.00143193 -0.000708754 0.000104088 0.000945081 0.00173455 0.00237823 0.00278085 0.00285881 0.00256061 0.00188514 0.000897051 -0.0002691 -0.00141988 -0.00232939 -0.00278452 -0.00263911 -0.00187027 -0.000611801 0.000850534 0.00213127 0.00284179 0.0027188 0.00174004 0.00017903 -0.0014427 -0.00251174 -0.00256152 -0.00149962 0.00027896 0.00199284 0.00279196 0.00219006 0.000403386 -0.0016372 -0.00270394 -0.00197752 0.000336937 0.00294012 0.00410897 0.00281493 -0.000430721 -0.00371081 -0.00492442 -0.00334867 -0.000341896 0.00156288 0.000701406 -0.00212392 -0.00404752 -0.00257936 0.00186197 0.00587529 0.00611499 0.0029104 0.000576855 0.00321773 0.00974931 0.014132 0.0115486 0.00480473 0.00268266 0.00985599 0.0196622 0.0205288 0.0104673 0.00142674 0.00611572 0.0226286 0.0359199 0.0338794 0.0185509 0.00153565 -0.00795129 -0.00893818 -0.00570088 -0.00236187 -0.000511816 8.96629e-05 0.000115007 6.3411e-05 0 0 
0 0 5.62231e-05 0.000109121 0.000100943 -0.000445016 -0.00226491 -0.00575221 -0.00931214 -0.00820171 0.00301268 0.0236337 0.0421781 0.0433932 0.0247177 0.00328676 -0.000253644 0.0146359 0.027715 0.0230352 0.00767381 0.000616307 0.00850628 0.0197149 0.0207954 0.0118513 0.00367099 0.00400249 0.0100054 0.0132173 0.00927293 0.00162621 -0.00311399 -0.0020172 0.0020371 0.00394472 0.00131397 -0.00382595 -0.00736196 -0.00676432 -0.00288304 0.00115703 0.00257152 0.000843914 -0.00226465 -0.00425522 -0.0036526 -0.000817506 0.00251787 0.00445225 0.00402534 0.00161927 -0.00141142 -0.00354558 -0.00384625 -0.00230616 0.00028196 0.00277331 0.00418584 0.00405437 0.00252568 0.000210706 -0.00209207 -0.0036817 -0.00415228 -0.00346216 -0.00188334 0.000125195 0.00206429 0.00351685 0.00422669 0.0041242 0.0033026 0.00196694 0.000373582 -0.00122227 -0.00260588 -0.0036295 -0.00421856 -0.00436417 -0.00410861 -0.0035283 -0.00271564 -0.00176557 -0.000763189 0.00022086 0.00113323 0.00193909 0.00261946 0.00317024 0.00359769 0.00391289 0.00413157 0.00427111 0.00435169 0.00439006 0.00440112 0.0043971 0.00438748 0.00437846 0.00437471 0.00437847 0.00438749 0.00439711 0.00440112 0.00439006 0.00435168 0.0042711 0.00413156 0.00391288 0.00359769 0.00317024 0.00261949 0.00193914 0.00113329 0.000220926 -0.000763137 -0.00176554 -0.00271572 -0.00352855 -0.00410909 -0.00436474 -0.00421912 -0.00362997 -0.00260628 -0.00122268 0.000373081 0.00196647 0.0033026 0.00412474 0.00422745 0.00351757 0.00206482 0.000125363 -0.00188343 -0.00346216 -0.00415236 -0.00368173 -0.00209202 0.000210957 0.00252709 0.00405751 0.00419035 0.00277484 0.000264386 -0.00238002 -0.00403891 -0.00393041 -0.00202797 0.000833961 0.00328975 0.0041173 0.00292358 0.000438935 -0.00182416 -0.0024629 -0.00114192 0.00101041 0.00200159 0.000384113 -0.0034072 -0.00694137 -0.00739042 -0.00392464 0.0011103 0.00375245 0.001949 -0.0020381 -0.00317465 0.001472 0.00906884 0.013035 0.00986179 0.0038532 0.00354127 0.0116527 0.0205281 0.0194825 0.00840379 0.000602308 0.00759931 0.0228201 0.027461 0.0145096 -0.000235268 0.00328037 0.0245211 0.0430271 0.0418177 0.0234317 0.00298809 -0.0081288 -0.00922721 -0.00569579 -0.00224517 -0.000475487 -1.31385e-05 7.24199e-05 0 0 
0 0 6.8158e-05 1.30818e-05 -0.000348843 -0.00193755 -0.00528512 -0.00901631 -0.00820171 0.00357186 0.0264466 0.0476141 0.0484089 0.025062 -0.000713204 -0.00238479 0.0189557 0.0343555 0.0239713 0.00230771 -0.00282022 0.0130091 0.0282101 0.0254271 0.0113719 0.00424855 0.0105959 0.0203137 0.0209404 0.0115682 0.00180859 7.29755e-05 0.00528943 0.00956301 0.00697704 -0.00104321 -0.00806848 -0.00909491 -0.00464918 0.000453129 0.00165722 -0.0017663 -0.00669432 -0.00902307 -0.00679451 -0.00133777 0.00398805 0.00617585 0.00435687 3.1524e-05 -0.00409196 -0.00573967 -0.00419097 -0.000421623 0.00361234 0.00603412 0.00587312 0.00334677 -0.000391399 -0.00385079 -0.00580496 -0.00569232 -0.00369722 -0.000576229 0.00266754 0.00511769 0.00619184 0.00572909 0.00395755 0.00137225 -0.00142386 -0.00387401 -0.00556812 -0.00629487 -0.00603684 -0.00493182 -0.00322071 -0.00118596 0.000897975 0.002806 0.00437186 0.00550181 0.00616207 0.00637115 0.00618443 0.00567827 0.0049376 0.0040436 0.00307215 0.00208253 0.001125 0.000232611 -0.000573083 -0.00127987 -0.00188198 -0.00238134 -0.0027784 -0.00307907 -0.00328768 -0.00341041 -0.00345157 -0.00341042 -0.00328768 -0.00307906 -0.00277841 -0.00238136 -0.001882 -0.00127989 -0.000573099 0.0002326 0.00112502 0.00208259 0.00307223 0.00404372 0.00493771 0.00567837 0.00618447 0.00637109 0.0061618 0.00550122 0.00437103 0.00280514 0.00089724 -0.00118655 -0.00322135 -0.00493264 -0.00603745 -0.00629483 -0.00556725 -0.00387272 -0.00142279 0.00137283 0.0039575 0.00572871 0.00619175 0.00511778 0.00266762 -0.000575779 -0.00369648 -0.0056902 -0.00580059 -0.00384457 -0.000388927 0.00332304 0.00576935 0.00575773 0.00305136 -0.00133192 -0.00536257 -0.00684629 -0.00459884 0.000648846 0.00626833 0.00894589 0.00666915 0.00028062 -0.00665161 -0.00997093 -0.00788452 -0.00252451 0.0014284 0.000413003 -0.00481882 -0.00940157 -0.00831742 -0.00112622 0.00696403 0.00945988 0.00505807 -0.000189532 0.00160563 0.0114061 0.0207286 0.0200053 0.0103723 0.00410555 0.0111711 0.0251064 0.0278862 0.0128562 -0.00280393 0.00228752 0.0237536 0.0340442 0.0187906 -0.00234646 -0.000679552 0.0248703 0.0480074 0.047213 0.0262257 0.00354876 -0.00812181 -0.00893515 -0.00526804 -0.00203439 -0.000586586 -4.75901e-05 0 0 
0 0 -1.27108e-05 -0.000424915 -0.00157508 -0.00447776 -0.00817369 -0.0080207 0.00301268 0.0264466 0.0495435 0.0509718 0.0247022 -0.00455365 -0.00453657 0.0227128 0.0394699 0.0221549 -0.00567477 -0.00674884 0.0184184 0.0356939 0.0260054 0.00715589 0.00494603 0.0200312 0.0319718 0.0269819 0.0122895 0.00430601 0.00913079 0.0178435 0.0183699 0.00841792 -0.00360714 -0.00824176 -0.00394855 0.00267347 0.00392963 -0.00212954 -0.0108018 -0.0153677 -0.0125876 -0.00473549 0.00270218 0.00521001 0.00208255 -0.00367741 -0.00779412 -0.00749626 -0.00295497 0.00322303 0.00773582 0.0084106 0.00514446 -0.000321149 -0.00544415 -0.00808241 -0.00733716 -0.00371994 0.00124315 0.00572393 0.00826441 0.00819616 0.00571799 0.00170105 -0.00267325 -0.00628557 -0.00834692 -0.00852933 -0.00695214 -0.00408068 -0.00056004 0.00294684 0.00588499 0.00788048 0.00875315 0.00851868 0.00733074 0.00543142 0.00309572 0.000595121 -0.00184203 -0.00404101 -0.00588674 -0.00732002 -0.00832824 -0.00893731 -0.00919454 -0.00916222 -0.00891006 -0.00849988 -0.00799378 -0.00744102 -0.00689329 -0.00638168 -0.00593223 -0.00556448 -0.00529498 -0.00512748 -0.00506978 -0.00512751 -0.00529503 -0.00556448 -0.00593225 -0.00638166 -0.00689327 -0.00744103 -0.00799377 -0.0084999 -0.00891002 -0.00916214 -0.0091944 -0.00893716 -0.00832812 -0.00732006 -0.00588687 -0.00404131 -0.00184261 0.000594058 0.0030945 0.00543027 0.00732966 0.0085175 0.00875181 0.00787949 0.00588513 0.00294818 -0.000558306 -0.00407933 -0.00695158 -0.00852973 -0.0083476 -0.00628543 -0.00267253 0.00170155 0.00571906 0.0081977 0.00826696 0.00572929 0.00125094 -0.00371605 -0.00736618 -0.00821786 -0.0058167 -0.00109461 0.00386528 0.00673548 0.00612341 0.00244999 -0.00210507 -0.00475102 -0.00377917 0.000205708 0.00438498 0.00533002 0.00124228 -0.0064937 -0.0136626 -0.0156664 -0.0108602 -0.00239429 0.00349739 0.00236668 -0.00401735 -0.00825536 -0.00377773 0.00809469 0.0180566 0.0176311 0.00893583 0.00400138 0.0118571 0.0265096 0.0314707 0.019689 0.00478138 0.00698823 0.0256693 0.0352861 0.0181993 -0.00670485 -0.00562123 0.0219594 0.0391172 0.0225152 -0.00447916 -0.00448312 0.0245208 0.0505578 0.0491374 0.0262375 0.00299767 -0.00797205 -0.0082047 -0.00467736 -0.00189277 -0.000477083 0 0 
0 0 -0.000313308 -0.00141297 -0.00364553 -0.00697844 -0.0076013 0.00154855 0.0236337 0.0476141 0.0509718 0.0244714 -0.00687683 -0.00608712 0.0254831 0.0427333 0.0182742 -0.015089 -0.0106433 0.0240506 0.0407889 0.0216957 -0.000434961 0.00608635 0.0305695 0.0412319 0.0283464 0.0114739 0.010919 0.024165 0.0326692 0.0250613 0.00837225 -0.00205724 0.000623332 0.00932747 0.0119944 0.00369922 -0.00974716 -0.0182513 -0.016536 -0.00776323 0.00011273 0.00108302 -0.00474869 -0.0121107 -0.0149754 -0.010787 -0.00174315 0.00708491 0.0110694 0.00860046 0.00157289 -0.00603482 -0.0104048 -0.0096715 -0.0044841 0.00265185 0.00866654 0.0112687 0.00969729 0.00477247 -0.00163887 -0.0074046 -0.0108367 -0.0111233 -0.00843529 -0.00368135 0.00183523 0.00681068 0.0102382 0.0115718 0.0107518 0.00811799 0.00426937 -0.000101 -0.00433342 -0.00790044 -0.0104576 -0.0118503 -0.0120845 -0.0112912 -0.0096786 -0.00748789 -0.00496345 -0.0023208 0.000265897 0.00266805 0.00480001 0.00662139 0.00811584 0.0093029 0.0102122 0.010884 0.0113575 0.0116803 0.0118818 0.0120007 0.0120626 0.0120954 0.0121066 0.0120953 0.0120626 0.0120007 0.0118818 0.0116803 0.0113575 0.010884 0.0102122 0.00930288 0.00811587 0.00662149 0.00480015 0.00266812 0.000265837 -0.00232109 -0.00496389 -0.0074886 -0.0096798 -0.0112929 -0.0120862 -0.0118519 -0.0104593 -0.00790237 -0.00433472 -0.000100593 0.00427126 0.00812016 0.0107534 0.0115724 0.0102375 0.00680971 0.00183571 -0.00368 -0.0084344 -0.011122 -0.0108347 -0.00740255 -0.00163376 0.00478209 0.00970415 0.0112378 0.00850261 0.00217962 -0.0054948 -0.0113851 -0.0127032 -0.00831288 0.000391556 0.0096472 0.0147921 0.0126571 0.00371055 -0.00754015 -0.0148275 -0.0142095 -0.00724858 -0.00041801 -0.000288594 -0.0078514 -0.0169231 -0.0188352 -0.0101133 0.00365234 0.0119716 0.00906788 0.000200053 -0.00241085 0.00814869 0.0248066 0.0322406 0.023613 0.0104014 0.0110493 0.0278282 0.0406187 0.0300998 0.00589053 -0.000543081 0.0213943 0.0403219 0.0237636 -0.0105751 -0.0149513 0.0181192 0.0423574 0.025264 -0.00601417 -0.00677964 0.0243042 0.0505738 0.0472344 0.0234269 0.0014509 -0.00775611 -0.00725331 -0.00380492 -0.00134951 0 0 
0 0 -0.000928317 -0.00286413 -0.00575402 -0.00698615 -0.000339108 0.0187124 0.0421781 0.0484089 0.0247022 -0.00687683 -0.00664439 0.0269656 0.0444312 0.0140901 -0.0239121 -0.0139498 0.0289973 0.0426408 0.0129567 -0.00999721 0.00808611 0.0401695 0.044879 0.0234805 0.00973846 0.0214246 0.0415317 0.0445239 0.0274749 0.00974774 0.00815591 0.0193481 0.0264129 0.0182487 -7.32824e-05 -0.0141985 -0.01488 -0.0055324 0.00247632 0.000484267 -0.010675 -0.0224104 -0.0258302 -0.0183342 -0.00477297 0.00660038 0.00976679 0.00430115 -0.00517751 -0.0123849 -0.0130503 -0.00693371 0.0026488 0.0109581 0.0142864 0.011446 0.00396683 -0.00492635 -0.0118015 -0.0143393 -0.01197 -0.00579435 0.00203818 0.00913839 0.0136234 0.0145394 0.01193 0.00667173 9.89227e-05 -0.00636016 -0.0115133 -0.014584 -0.0152769 -0.0137317 -0.0103841 -0.00588053 -0.000883768 0.00399939 0.00829404 0.0116712 0.0139781 0.0151904 0.0153872 0.0147203 0.0133716 0.0115487 0.00943389 0.00718663 0.00493994 0.00278731 0.000806983 -0.000966 -0.00248956 -0.00376828 -0.00480391 -0.00559867 -0.00615072 -0.00648397 -0.00659462 -0.00648403 -0.00615075 -0.0055987 -0.00480395 -0.00376835 -0.00248956 -0.000966068 0.000806915 0.00278735 0.00494012 0.00718683 0.00943406 0.0115486 0.0133714 0.01472 0.0153863 0.0151891 0.013976 0.0116689 0.00829166 0.00399707 -0.000886024 -0.00588174 -0.0103834 -0.0137294 -0.0152746 -0.0145826 -0.0115124 -0.00636028 9.8157e-05 0.00667276 0.0119323 0.0145404 0.0136236 0.0091399 0.00203945 -0.00579047 -0.0119585 -0.0143271 -0.0118296 -0.0051105 0.00340288 0.0101925 0.0120955 0.00793183 -0.000466104 -0.00871661 -0.0119251 -0.00762108 0.00223287 0.0117333 0.0143119 0.00691791 -0.00759119 -0.0217542 -0.0278929 -0.0229645 -0.0108073 -4.8931e-05 0.00171284 -0.00596182 -0.0148987 -0.0142345 -0.000435709 0.0177277 0.0260312 0.0191062 0.00780935 0.00917234 0.0268173 0.0439739 0.0410909 0.0209543 0.00939794 0.0230095 0.044212 0.0395767 0.00784456 -0.0100297 0.0127324 0.0421521 0.0286545 -0.013861 -0.0236978 0.0139769 0.0440489 0.0267429 -0.00655385 -0.00676277 0.0245455 0.048018 0.0417605 0.0183578 -0.000665866 -0.00717357 -0.00533735 -0.00249128 0 0 
0 0 -0.00175536 -0.0041143 -0.00612449 -0.00216215 0.0127623 0.0341752 0.0433932 0.025062 -0.00455365 -0.00608712 0.0269656 0.0449427 0.0114395 -0.0301144 -0.0162192 0.0327322 0.0417467 0.00173243 -0.0197713 0.0107657 0.0468454 0.0414275 0.0131261 0.00824454 0.0336947 0.0554165 0.0484008 0.0255696 0.0158403 0.0277074 0.0427308 0.0400934 0.0195119 -0.00108384 -0.00597413 0.00346476 0.0125167 0.0085068 -0.00807537 -0.025522 -0.0318259 -0.0241453 -0.00979399 0.000431404 0.000289782 -0.00833423 -0.01789 -0.0208322 -0.0143715 -0.00160518 0.0108829 0.017015 0.014334 0.00477545 -0.0068013 -0.0151758 -0.0170103 -0.0119708 -0.00241745 0.00789468 0.0153556 0.0177185 0.0145818 0.00722008 -0.00200611 -0.0105824 -0.0164619 -0.0185082 -0.0165994 -0.0114575 -0.00434873 0.00329935 0.0101775 0.0153107 0.0181497 0.0185684 0.0167988 0.0132851 0.00860857 0.00334424 -0.00196188 -0.00690397 -0.011179 -0.014625 -0.0171763 -0.018851 -0.0197405 -0.0199693 -0.0196685 -0.0190001 -0.0180791 -0.0170329 -0.0159526 -0.0149287 -0.0140058 -0.0132482 -0.0126805 -0.0123457 -0.0122321 -0.0123458 -0.0126806 -0.0132483 -0.0140058 -0.0149288 -0.0159526 -0.017033 -0.0180791 -0.019 -0.0196681 -0.0199689 -0.0197403 -0.018851 -0.0171767 -0.0146257 -0.0111803 -0.00690614 -0.00196479 0.0033408 0.00860536 0.0132825 0.0167976 0.0185694 0.0181525 0.0153131 0.0101786 0.00330061 -0.0043477 -0.0114577 -0.0165978 -0.018505 -0.0164614 -0.0105837 -0.00200534 0.0072217 0.014585 0.0177321 0.0153751 0.00787404 -0.0026105 -0.0126063 -0.0184845 -0.0178462 -0.0106208 0.000664707 0.0117116 0.0179951 0.0166165 0.00782867 -0.00455775 -0.0145462 -0.0171343 -0.0118681 -0.00421603 -0.00235957 -0.0105784 -0.0243409 -0.032526 -0.0264951 -0.00858442 0.00851704 0.0124616 0.00299245 -0.00658946 -0.00148439 0.0192405 0.0396257 0.0420028 0.0269619 0.0152596 0.0250592 0.0477607 0.0546363 0.0330711 0.00789361 0.0127314 0.0407622 0.0461509 0.0104552 -0.0197384 0.00160084 0.0412609 0.0323486 -0.0161163 -0.0298433 0.0113593 0.0445753 0.0267685 -0.0059803 -0.00446865 0.0248254 0.0428645 0.0335716 0.0123444 -0.00197767 -0.00481456 -0.00322369 0 0 