<?xml version="1.0"?>
<VTKFile type="ImageData" version="0.1" byte_order="LittleEndian">
<ImageData WholeExtent="0 199 0 199 0 0" Origin="0 0 0" Spacing="15 15 0">
<Piece Extent="0 199 0 199 0 0">
<PointData Scalars="Amplitude">
<DataArray type="Float32" Name="Amplitude" format="ascii">
0 0 0 0 0 0 0 0 0 0 0 0 0 0 0 0 0 0 0 0 0 0 0 0 0 0 0 0 0 0 0 0 0 0 0 0 0 0 0 0 0 0 0 0 0 0 0 0 0 0 0 0 0 0 0 0 0 0 0 0 0 0 0 0 0 0 0 0 0 0 0 0 0 0 0 0 0 0 0 0 0 0 0 0 0 0 0 0 0 0 0 0 0 0 0 0 0 0 0 0 0 0 0 0 0 0 0 0 0 0 0 0 0 0 0 0 0 0 0 0 0 0 0 0 0 0 0 0 0 0 0 0 0 0 0 0 0 0 0 0 0 0 0 0 0 0 0 0 0 0 0 0 0 0 0 0 0 0 0 0 0 0 0 0 0 0 0 0 0 0 0 0 0 0 0 0 0 0 0 0 0 0 0 0 0 0 0 0 0 0 0 0 0 0 0 0 0 0 0 0 
0 0 0 0 0 0 0 0 0 0 0 0 0 0 0 0 0 0 0 0 0 0 0 0 0 0 0 0 0 0 0 0 0 0 0 0 0 0 0 0 0 0 0 0 0 0 0 0 0 0 0 0 0 0 0 0 0 0 0 0 0 0 0 0 0 0 0 0 0 0 0 0 0 0 0 0 0 0 0 0 0 0 0 0 0 0 0 0 0 0 0 0 0 0 0 0 0 0 0 0 0 0 0 0 0 0 0 0 0 0 0 0 0 0 0 0 0 0 0 0 0 0 0 0 0 0 0 0 0 0 0 0 0 0 0 0 0 0 0 0 0 0 0 0 0 0 0 0 0 0 0 0 0 0 0 0 0 0 0 0 0 0 0 0 0 0 0 0 0 0 0 0 0 0 0 0 0 0 0 0 0 0 0 0 0 0 0 0 0 0 0 0 0 0 0 0 0 0 0 0 
0 0 0 0 0 0 0 0 0 0 0 0 -0 0 0 -1.9695e-43 -2.4458e-42 -5.23191e-42 4.96468e-41 3.33284e-40 1.28424e-41 -7.95436e-39 -3.00155e-38 6.14483e-38 8.50171e-37 1.89789e-36 -9.44173e-36 -7.05589e-35 -9.00271e-35 9.16248e-34 5.00084e-33 3.56122e-33 -6.78396e-32 -3.15882e-31 -1.76898e-31 4.00508e-30 1.81443e-29 1.52993e-29 -1.84356e-28 -9.30778e-28 -1.38807e-27 5.78245e-27 3.97407e-26 9.57211e-26 -4.60037e-26 -1.20887e-24 -4.53869e-24 -6.90205e-24 1.47296e-23 1.26407e-22 4.02954e-22 6.11952e-22 -7.87262e-22 -8.33953e-21 -2.93475e-20 -6.15679e-20 -4.6803e-20 2.32781e-19 1.2791e-18 3.77387e-18 7.55681e-18 8.48746e-18 -7.8403e-18 -7.41094e-17 -2.42832e-16 -5.61628e-16 -9.90172e-16 -1.22607e-15 -4.37055e-16 3.02434e-15 1.17209e-14 2.87042e-14 5.61489e-14 9.27301e-14 1.29764e-13 1.46696e-13 1.07205e-13 -4.23296e-14 -3.70126e-13 -9.50806e-13 -1.85164e-12 -3.11479e-12 -4.7387e-12 -6.66296e-12 -8.76064e-12 -1.08416e-11 -1.26679e-11 -1.39797e-11 -1.45293e-11 -1.41156e-11 -1.2617e-11 -1.00131e-11 -6.39607e-12 -1.96674e-12 2.98221e-12 8.09292e-12 1.29768e-11 1.72519e-11 2.05778e-11 2.26873e-11 2.34099e-11 2.26873e-11 2.05778e-11 1.72519e-11 1.29768e-11 8.09292e-12 2.98221e-12 -1.96674e-12 -6.39607e-12 -1.00131e-11 -1.2617e-11 -1.41156e-11 -1.45293e-11 -1.39797e-11 -1.26679e-11 -1.08416e-11 -8.76064e-12 -6.66296e-12 -4.7387e-12 -3.11479e-12 -1.85164e-12 -9.50806e-13 -3.70126e-13 -4.23296e-14 1.07205e-13 1.46696e-13 1.29764e-13 9.27301e-14 5.61489e-14 2.87042e-14 1.17209e-14 3.02434e-15 -4.37055e-16 -1.22607e-15 -9.90172e-16 -5.61628e-16 -2.42832e-16 -7.41094e-17 -7.8403e-18 8.48746e-18 7.55681e-18 3.77387e-18 1.2791e-18 2.32781e-19 -4.6803e-20 -6.15679e-20 -2.93475e-20 -8.33953e-21 -7.87262e-22 6.11952e-22 4.02954e-22 1.26407e-22 1.47296e-23 -6.90205e-24 -4.53869e-24 -1.20887e-24 -4.60037e-26 9.57211e-26 3.97407e-26 5.78245e-27 -1.38807e-27 -9.30778e-28 -1.84356e-28 1.52993e-29 1.81443e-29 4.00509e-30 -1.76898e-31 -3.15882e-31 -6.78397e-32 3.56122e-33 5.00084e-33 9.16237e-34 -8.99674e-35 -7.0041e-35 -9.37295e-36 1.8828e-36 8.4406e-37 6.10332e-38 -2.98109e-38 -7.90141e-39 1.27841e-41 3.31151e-40 4.92801e-41 -5.19812e-42 -2.4458e-42 -1.9695e-43 0 0 -0 0 0 0 0 0 0 0 0 0 0 0 
0 0 0 0 0 0 0 0 0 0 0 0 1.30782e-46 6.64186e-44 -1.22762e-43 -4.61806e-42 -1.62844e-41 7.22378e-41 7.40205e-40 9.35724e-40 -1.4951e-38 -7.83553e-38 4.40842e-38 1.84057e-36 5.86158e-36 -1.47916e-35 -1.66028e-34 -3.38588e-34 1.73333e-33 1.23919e-32 1.70161e-32 -1.40426e-31 -8.05682e-31 -8.92137e-31 8.72101e-30 4.67227e-29 5.81469e-29 -4.12875e-28 -2.39552e-27 -4.1875e-27 1.30366e-26 1.02525e-25 2.62754e-25 -8.14808e-26 -3.1816e-24 -1.22543e-23 -1.85682e-23 4.2705e-23 3.55626e-22 1.10872e-21 1.53597e-21 -3.01839e-21 -2.56651e-20 -8.5073e-20 -1.62489e-19 -5.21981e-20 9.4702e-19 4.31248e-18 1.15943e-17 2.03143e-17 1.27305e-17 -6.43076e-17 -3.18737e-16 -8.946e-16 -1.83568e-15 -2.71866e-15 -1.97567e-15 3.99486e-15 2.14483e-14 5.86233e-14 1.22284e-13 2.09957e-13 2.97244e-13 3.21606e-13 1.66912e-13 -3.44027e-13 -1.44027e-12 -3.36938e-12 -6.3371e-12 -1.04246e-11 -1.54971e-11 -2.1123e-11 -2.65284e-11 -3.06048e-11 -3.19825e-11 -2.91649e-11 -2.07099e-11 -5.42852e-12 1.74285e-11 4.80312e-11 8.58962e-11 1.29889e-10 1.78303e-10 2.28997e-10 2.7956e-10 3.27511e-10 3.70459e-10 4.0627e-10 4.33176e-10 4.49859e-10 4.55511e-10 4.49859e-10 4.33176e-10 4.0627e-10 3.70459e-10 3.27511e-10 2.7956e-10 2.28997e-10 1.78303e-10 1.29889e-10 8.58962e-11 4.80312e-11 1.74285e-11 -5.42852e-12 -2.07099e-11 -2.91649e-11 -3.19825e-11 -3.06048e-11 -2.65284e-11 -2.1123e-11 -1.54971e-11 -1.04246e-11 -6.3371e-12 -3.36938e-12 -1.44027e-12 -3.44027e-13 1.66912e-13 3.21606e-13 2.97244e-13 2.09957e-13 1.22284e-13 5.86233e-14 2.14483e-14 3.99486e-15 -1.97567e-15 -2.71866e-15 -1.83568e-15 -8.946e-16 -3.18737e-16 -6.43076e-17 1.27305e-17 2.03143e-17 1.15943e-17 4.31248e-18 9.4702e-19 -5.21981e-20 -1.62489e-19 -8.5073e-20 -2.56651e-20 -3.01839e-21 1.53597e-21 1.10872e-21 3.55626e-22 4.2705e-23 -1.85682e-23 -1.22543e-23 -3.1816e-24 -8.14808e-26 2.62754e-25 1.02525e-25 1.30366e-26 -4.1875e-27 -2.39551e-27 -4.12875e-28 5.81471e-29 4.67227e-29 8.72102e-30 -8.92134e-31 -8.05682e-31 -1.40426e-31 1.70161e-32 1.2392e-32 1.73441e-33 -3.34555e-34 -1.64655e-34 -1.46799e-35 5.82015e-36 1.82785e-36 4.37774e-38 -7.78379e-38 -1.48531e-38 9.30013e-40 7.35588e-40 7.17881e-41 -1.61771e-41 -4.58122e-42 -1.22292e-43 6.64186e-44 1.30782e-46 0 0 0 0 0 0 0 0 0 0 0 
0 0 0 0 0 0 0 0 0 0 -0 -0 6.75263e-45 2.62399e-43 -2.05742e-42 -2.26115e-41 -2.75362e-41 5.55609e-40 2.90905e-39 -3.40977e-39 -8.45241e-38 -2.35682e-37 1.00244e-36 8.66536e-36 1.13771e-35 -1.27454e-34 -6.80977e-34 -1.67277e-34 1.15194e-32 4.57276e-32 -2.28598e-32 -8.33123e-31 -2.78921e-30 2.19875e-30 4.99991e-29 1.6078e-28 -7.65371e-29 -2.47572e-27 -8.70954e-27 -3.00797e-27 9.47982e-26 4.14916e-25 5.85316e-25 -2.22114e-24 -1.5339e-23 -4.00785e-23 -1.22572e-23 3.37595e-22 1.53064e-21 3.38197e-21 8.34547e-22 -2.5306e-20 -1.14526e-19 -2.8513e-19 -3.28474e-19 7.23714e-19 5.36864e-18 1.739e-17 3.66241e-17 4.10925e-17 -5.08505e-17 -4.29335e-16 -1.3939e-15 -3.15686e-15 -5.20185e-15 -4.958e-15 4.14605e-15 3.43961e-14 1.03151e-13 2.26382e-13 4.02441e-13 5.8369e-13 6.38209e-13 3.11105e-13 -7.969e-13 -3.21036e-12 -7.49759e-12 -1.41156e-11 -2.31897e-11 -3.42605e-11 -4.6054e-11 -5.6339e-11 -6.1934e-11 -5.88966e-11 -4.28998e-11 -9.74394e-12 4.40608e-11 1.20755e-10 2.20907e-10 3.43197e-10 4.84434e-10 6.39784e-10 8.03183e-10 9.67862e-10 1.12685e-09 1.27352e-09 1.40189e-09 1.50695e-09 1.58477e-09 1.63257e-09 1.64869e-09 1.63257e-09 1.58477e-09 1.50695e-09 1.40189e-09 1.27352e-09 1.12685e-09 9.67862e-10 8.03183e-10 6.39784e-10 4.84434e-10 3.43197e-10 2.20907e-10 1.20755e-10 4.40608e-11 -9.74394e-12 -4.28998e-11 -5.88966e-11 -6.1934e-11 -5.6339e-11 -4.6054e-11 -3.42605e-11 -2.31897e-11 -1.41156e-11 -7.49759e-12 -3.21036e-12 -7.969e-13 3.11105e-13 6.38209e-13 5.8369e-13 4.02441e-13 2.26382e-13 1.03151e-13 3.43961e-14 4.14605e-15 -4.958e-15 -5.20185e-15 -3.15686e-15 -1.3939e-15 -4.29335e-16 -5.08505e-17 4.10925e-17 3.66241e-17 1.739e-17 5.36864e-18 7.23714e-19 -3.28474e-19 -2.8513e-19 -1.14526e-19 -2.5306e-20 8.34547e-22 3.38197e-21 1.53064e-21 3.37595e-22 -1.22572e-23 -4.00785e-23 -1.5339e-23 -2.22114e-24 5.85316e-25 4.14916e-25 9.47982e-26 -3.00795e-27 -8.70954e-27 -2.47571e-27 -7.65365e-29 1.6078e-28 4.99991e-29 2.19876e-30 -2.78921e-30 -8.33123e-31 -2.28598e-32 4.57284e-32 1.1524e-32 -1.59279e-34 -6.75227e-34 -1.26489e-34 1.12968e-35 8.60526e-36 9.95612e-37 -2.34128e-37 -8.39724e-38 -3.38688e-39 2.89093e-39 5.52149e-40 -2.73502e-41 -2.24298e-41 -2.04929e-42 2.62399e-43 6.75263e-45 -0 -0 0 0 0 0 0 0 0 0 0 
0 0 0 0 0 0 0 0 0 -0 0 4.05501e-44 3.69609e-43 -2.95186e-42 -2.96357e-41 -2.34494e-41 8.29105e-40 3.92407e-39 -7.64605e-39 -1.30626e-37 -3.05094e-37 1.88355e-36 1.3665e-35 1.06957e-35 -2.35291e-34 -1.06602e-33 4.98603e-34 2.11966e-32 6.96e-32 -1.04832e-31 -1.55241e-30 -4.14682e-30 8.67269e-30 9.61724e-29 2.40537e-28 -4.47694e-28 -5.06751e-27 -1.37857e-26 1.15438e-26 2.18615e-25 7.30675e-25 3.65569e-25 -6.81316e-24 -3.17264e-23 -5.76758e-23 8.78682e-23 9.38655e-22 3.07989e-21 4.19976e-21 -1.00938e-20 -7.96735e-20 -2.53513e-19 -4.25863e-19 1.98316e-19 4.09591e-18 1.58172e-17 3.73415e-17 4.82171e-17 -4.23228e-17 -4.65544e-16 -1.60766e-15 -3.7377e-15 -6.02482e-15 -4.38861e-15 1.17323e-14 6.19896e-14 1.72549e-13 3.60509e-13 5.9616e-13 7.38132e-13 4.49282e-13 -8.77134e-13 -4.12634e-12 -1.03344e-11 -2.03575e-11 -3.43102e-11 -5.08159e-11 -6.6204e-11 -7.38643e-11 -6.40121e-11 -2.40694e-11 6.02196e-11 2.03014e-10 4.16173e-10 7.07009e-10 1.07646e-09 1.51803e-09 2.0179e-09 2.55604e-09 3.10843e-09 3.6498e-09 4.15661e-09 4.60962e-09 4.99575e-09 5.30897e-09 5.55006e-09 5.72535e-09 5.84481e-09 5.91963e-09 5.95987e-09 5.97247e-09 5.95987e-09 5.91963e-09 5.84481e-09 5.72535e-09 5.55006e-09 5.30897e-09 4.99575e-09 4.60962e-09 4.15661e-09 3.6498e-09 3.10843e-09 2.55604e-09 2.0179e-09 1.51803e-09 1.07646e-09 7.07009e-10 4.16173e-10 2.03014e-10 6.02196e-11 -2.40694e-11 -6.40121e-11 -7.38643e-11 -6.6204e-11 -5.08159e-11 -3.43102e-11 -2.03575e-11 -1.03344e-11 -4.12634e-12 -8.77134e-13 4.49282e-13 7.38132e-13 5.9616e-13 3.60509e-13 1.72549e-13 6.19896e-14 1.17323e-14 -4.38861e-15 -6.02482e-15 -3.7377e-15 -1.60766e-15 -4.65544e-16 -4.23228e-17 4.82171e-17 3.73415e-17 1.58172e-17 4.09591e-18 1.98316e-19 -4.25863e-19 -2.53513e-19 -7.96735e-20 -1.00938e-20 4.19976e-21 3.07989e-21 9.38655e-22 8.78682e-23 -5.76758e-23 -3.17264e-23 -6.81316e-24 3.65569e-25 7.30675e-25 2.18615e-25 1.15439e-26 -1.37857e-26 -5.06751e-27 -4.47694e-28 2.40537e-28 9.61725e-29 8.67269e-30 -4.14682e-30 -1.55241e-30 -1.04825e-31 6.95991e-32 2.10897e-32 4.99154e-34 -1.058e-33 -2.33619e-34 1.06218e-35 1.35727e-35 1.87095e-36 -3.03149e-37 -1.29792e-37 -7.59607e-39 3.90018e-39 8.24104e-40 -2.32822e-41 -2.94483e-41 -2.94372e-42 3.69609e-43 4.05501e-44 0 -0 0 0 0 0 0 0 0 0 
0 0 0 0 0 0 0 0 -0 0 7.97968e-44 4.75557e-43 -3.87853e-42 -3.7262e-41 -1.72292e-41 1.16146e-39 5.13142e-39 -1.36308e-38 -1.92282e-37 -3.82524e-37 3.2146e-36 2.07497e-35 6.67309e-36 -4.06683e-34 -1.62099e-33 1.86841e-33 3.68953e-32 1.02208e-31 -2.67231e-31 -2.73338e-30 -5.82807e-30 2.18476e-29 1.73471e-28 3.32332e-28 -1.25956e-27 -9.57069e-27 -1.99393e-26 4.89869e-26 4.49053e-25 1.17266e-24 -7.12273e-25 -1.64976e-23 -5.88556e-23 -6.08055e-23 3.69739e-22 2.15219e-21 5.32732e-21 1.76353e-21 -4.20209e-20 -1.94262e-19 -4.60781e-19 -3.24587e-19 2.38075e-18 1.26976e-17 3.57541e-17 5.80129e-17 -7.37089e-18 -4.1715e-16 -1.65512e-15 -4.14186e-15 -6.9372e-15 -4.58689e-15 1.7991e-14 8.98303e-14 2.4894e-13 5.12065e-13 7.99148e-13 8.01124e-13 -1.88869e-13 -3.4027e-12 -1.05326e-11 -2.32712e-11 -4.22639e-11 -6.54071e-11 -8.5658e-11 -8.88415e-11 -5.22197e-11 5.52897e-11 2.70495e-10 6.30625e-10 1.16572e-09 1.88988e-09 2.79304e-09 3.83532e-09 4.94559e-09 6.02522e-09 6.9573e-09 7.61966e-09 7.90073e-09 7.71487e-09 7.01528e-09 5.80286e-09 4.12872e-09 2.09116e-09 -1.7244e-10 -2.49855e-09 -4.71242e-09 -6.64398e-09 -8.14304e-09 -9.09233e-09 -9.41725e-09 -9.09233e-09 -8.14304e-09 -6.64398e-09 -4.71242e-09 -2.49855e-09 -1.7244e-10 2.09116e-09 4.12872e-09 5.80286e-09 7.01528e-09 7.71487e-09 7.90073e-09 7.61966e-09 6.9573e-09 6.02522e-09 4.94559e-09 3.83532e-09 2.79304e-09 1.88988e-09 1.16572e-09 6.30625e-10 2.70495e-10 5.52897e-11 -5.22197e-11 -8.88415e-11 -8.5658e-11 -6.54071e-11 -4.22639e-11 -2.32712e-11 -1.05326e-11 -3.4027e-12 -1.88869e-13 8.01124e-13 7.99148e-13 5.12065e-13 2.4894e-13 8.98303e-14 1.7991e-14 -4.58689e-15 -6.9372e-15 -4.14186e-15 -1.65512e-15 -4.1715e-16 -7.37089e-18 5.80129e-17 3.57541e-17 1.26976e-17 2.38075e-18 -3.24587e-19 -4.60781e-19 -1.94262e-19 -4.20209e-20 1.76353e-21 5.32732e-21 2.15219e-21 3.69739e-22 -6.08055e-23 -5.88556e-23 -1.64976e-23 -7.12273e-25 1.17266e-24 4.49053e-25 4.89869e-26 -1.99393e-26 -9.57069e-27 -1.25956e-27 3.32332e-28 1.73471e-28 2.18476e-29 -5.82805e-30 -2.73339e-30 -2.67464e-31 1.01357e-31 3.66105e-32 1.85422e-33 -1.60964e-33 -4.03888e-34 6.63137e-36 2.06132e-35 3.19354e-36 -3.80162e-37 -1.91078e-37 -1.35436e-38 5.10071e-39 1.15445e-39 -1.71244e-41 -3.70527e-41 -3.81611e-42 4.75557e-43 7.97968e-44 0 -0 0 0 0 0 0 0 0 
0 0 0 0 0 0 0 -0 0 1.08238e-43 5.40852e-43 -4.71327e-42 -4.42828e-41 -8.20576e-42 1.51628e-39 6.35074e-39 -2.13498e-38 -2.65789e-37 -4.47719e-37 5.05011e-36 2.9748e-35 -3.86505e-36 -6.56626e-34 -2.33387e-33 4.41027e-33 6.04612e-32 1.40713e-31 -5.59896e-31 -4.51574e-30 -7.40988e-30 4.60626e-29 2.915e-28 3.97754e-28 -2.83223e-27 -1.6648e-26 -2.47433e-26 1.29553e-25 8.3336e-25 1.64477e-24 -3.70962e-24 -3.44483e-23 -9.6365e-23 -8.01435e-24 1.00727e-21 4.24494e-21 7.46226e-21 -1.04215e-20 -1.15064e-19 -3.91739e-19 -6.37163e-19 6.82637e-19 8.28019e-18 2.98226e-17 6.20859e-17 3.81538e-17 -2.88425e-16 -1.46473e-15 -4.12858e-15 -7.59008e-15 -5.81959e-15 1.98622e-14 1.0798e-13 3.10675e-13 6.4583e-13 9.68287e-13 7.3409e-13 -1.3033e-12 -7.29161e-12 -2.00164e-11 -4.16672e-11 -7.11427e-11 -9.97344e-11 -1.05745e-10 -4.95653e-11 1.28314e-10 5.03464e-10 1.15546e-09 2.14683e-09 3.49478e-09 5.14029e-09 6.92145e-09 8.55857e-09 9.65767e-09 9.73532e-09 8.26447e-09 4.73534e-09 -1.27743e-09 -1.00522e-08 -2.16723e-08 -3.59996e-08 -5.26747e-08 -7.11407e-08 -9.06876e-08 -1.10508e-07 -1.2976e-07 -1.47619e-07 -1.63333e-07 -1.76252e-07 -1.85857e-07 -1.91772e-07 -1.9377e-07 -1.91772e-07 -1.85857e-07 -1.76252e-07 -1.63333e-07 -1.47619e-07 -1.2976e-07 -1.10508e-07 -9.06876e-08 -7.11407e-08 -5.26747e-08 -3.59996e-08 -2.16723e-08 -1.00522e-08 -1.27743e-09 4.73534e-09 8.26447e-09 9.73532e-09 9.65767e-09 8.55857e-09 6.92145e-09 5.14029e-09 3.49478e-09 2.14683e-09 1.15546e-09 5.03464e-10 1.28314e-10 -4.95653e-11 -1.05745e-10 -9.97344e-11 -7.11427e-11 -4.16672e-11 -2.00164e-11 -7.29161e-12 -1.3033e-12 7.3409e-13 9.68287e-13 6.4583e-13 3.10675e-13 1.0798e-13 1.98622e-14 -5.81959e-15 -7.59008e-15 -4.12858e-15 -1.46473e-15 -2.88425e-16 3.81538e-17 6.20859e-17 2.98226e-17 8.28019e-18 6.82637e-19 -6.37163e-19 -3.91739e-19 -1.15064e-19 -1.04215e-20 7.46226e-21 4.24494e-21 1.00727e-21 -8.01435e-24 -9.6365e-23 -3.44484e-23 -3.70962e-24 1.64477e-24 8.3336e-25 1.29553e-25 -2.47433e-26 -1.6648e-26 -2.83223e-27 3.97754e-28 2.915e-28 4.60626e-29 -7.41025e-30 -4.51671e-30 -5.58577e-31 1.3944e-31 6.00123e-32 4.37845e-33 -2.31799e-33 -6.52211e-34 -3.82928e-36 2.9557e-35 5.01767e-36 -4.45036e-37 -2.64154e-37 -2.1216e-38 6.31324e-39 1.5073e-39 -8.14174e-42 -4.38992e-41 -4.64809e-42 5.40852e-43 1.06885e-43 0 -0 0 0 0 0 0 0 
0 0 0 0 0 0 -0 0 1.19077e-43 5.80303e-43 -5.20672e-42 -4.94738e-41 1.5252e-42 1.84912e-39 7.46324e-39 -3.00997e-38 -3.45635e-37 -4.9117e-37 7.35176e-36 4.03383e-35 -2.2977e-35 -9.93947e-34 -3.18513e-33 8.57473e-33 9.37105e-32 1.81796e-31 -1.0384e-30 -7.04535e-30 -8.32001e-30 8.64714e-29 4.59698e-28 3.78859e-28 -5.56718e-27 -2.69173e-26 -2.39996e-26 2.80372e-25 1.41777e-24 1.93064e-24 -1.02004e-23 -6.4247e-23 -1.38124e-22 1.73632e-22 2.2366e-21 7.35067e-21 7.28489e-21 -4.35578e-20 -2.54586e-19 -6.65535e-19 -4.907e-19 3.8458e-18 2.07172e-17 5.65285e-17 7.41239e-17 -1.24655e-16 -1.08151e-15 -3.64311e-15 -7.72636e-15 -7.96051e-15 1.55941e-14 1.08778e-13 3.39591e-13 7.36549e-13 1.10081e-12 6.35129e-13 -2.55686e-12 -1.17813e-11 -3.1146e-11 -6.29169e-11 -1.017e-10 -1.25078e-10 -8.21951e-11 1.15486e-10 5.94193e-10 1.50012e-09 2.95689e-09 4.99632e-09 7.46894e-09 9.95077e-09 1.16702e-08 1.14815e-08 7.90768e-09 -7.39501e-10 -1.6168e-08 -3.98693e-08 -7.28765e-08 -1.1556e-07 -1.67502e-07 -2.27478e-07 -2.93546e-07 -3.63241e-07 -4.33828e-07 -5.02592e-07 -5.6709e-07 -6.25368e-07 -6.76063e-07 -7.18439e-07 -7.52304e-07 -7.77882e-07 -7.95625e-07 -8.06026e-07 -8.09446e-07 -8.06026e-07 -7.95625e-07 -7.77882e-07 -7.52304e-07 -7.18439e-07 -6.76063e-07 -6.25368e-07 -5.6709e-07 -5.02592e-07 -4.33828e-07 -3.63241e-07 -2.93546e-07 -2.27478e-07 -1.67502e-07 -1.1556e-07 -7.28765e-08 -3.98693e-08 -1.6168e-08 -7.39501e-10 7.90768e-09 1.14815e-08 1.16702e-08 9.95077e-09 7.46894e-09 4.99632e-09 2.95689e-09 1.50012e-09 5.94193e-10 1.15486e-10 -8.21951e-11 -1.25078e-10 -1.017e-10 -6.29169e-11 -3.1146e-11 -1.17813e-11 -2.55686e-12 6.35129e-13 1.10081e-12 7.36549e-13 3.39591e-13 1.08778e-13 1.55941e-14 -7.96051e-15 -7.72636e-15 -3.64311e-15 -1.08151e-15 -1.24655e-16 7.41239e-17 5.65285e-17 2.07172e-17 3.8458e-18 -4.907e-19 -6.65535e-19 -2.54586e-19 -4.35578e-20 7.28489e-21 7.35067e-21 2.2366e-21 1.73632e-22 -1.38124e-22 -6.4247e-23 -1.02004e-23 1.93064e-24 1.41778e-24 2.80372e-25 -2.39997e-26 -2.69172e-26 -5.56718e-27 3.78859e-28 4.59697e-28 8.64703e-29 -8.31391e-30 -7.00245e-30 -1.03132e-30 1.8048e-31 9.30578e-32 8.51559e-33 -3.16406e-33 -9.87407e-34 -2.28102e-35 4.00848e-35 7.30538e-36 -4.88316e-37 -3.43541e-37 -2.99141e-38 7.41987e-39 1.83835e-39 1.58245e-42 -4.91881e-41 -5.19857e-42 5.78947e-43 1.17723e-43 0 -0 0 0 0 0 0 
0 0 0 0 0 -0 0 1.08238e-43 5.80303e-43 -5.41249e-42 -5.23264e-41 8.96772e-42 2.1093e-39 8.35307e-39 -3.86635e-38 -4.23379e-37 -5.09099e-37 9.95694e-36 5.18138e-35 -5.13146e-35 -1.4137e-33 -4.12698e-33 1.46994e-32 1.37574e-31 2.19891e-31 -1.75907e-30 -1.04324e-29 -7.76253e-30 1.486e-28 6.84124e-28 1.91875e-28 -9.91902e-27 -4.07106e-26 -1.11053e-26 5.34277e-25 2.23092e-24 1.63425e-24 -2.228e-23 -1.08965e-22 -1.67691e-22 5.96311e-22 4.3262e-21 1.12159e-20 3.99195e-22 -1.14053e-19 -4.8323e-19 -9.35182e-19 5.84217e-19 1.10712e-17 4.22639e-17 8.59861e-17 1.6602e-17 -6.19834e-16 -2.76368e-15 -7.07175e-15 -9.99025e-15 6.45773e-15 9.05181e-14 3.24774e-13 7.63614e-13 1.20035e-12 6.52713e-13 -3.39668e-12 -1.55218e-11 -4.13633e-11 -8.2974e-11 -1.28096e-10 -1.32445e-10 1.7454e-12 4.40838e-10 1.41084e-09 3.1421e-09 5.74857e-09 9.03724e-09 1.22682e-08 1.39175e-08 1.1518e-08 1.66601e-09 -1.97403e-08 -5.70056e-08 -1.13923e-07 -1.92943e-07 -2.94386e-07 -4.15857e-07 -5.52029e-07 -6.94871e-07 -8.34337e-07 -9.59443e-07 -1.05956e-06 -1.12577e-06 -1.15204e-06 -1.13603e-06 -1.07954e-06 -9.88385e-07 -8.71828e-07 -7.41644e-07 -6.10916e-07 -4.9271e-07 -3.98786e-07 -3.3845e-07 -3.17651e-07 -3.3845e-07 -3.98786e-07 -4.9271e-07 -6.10916e-07 -7.41644e-07 -8.71828e-07 -9.88385e-07 -1.07954e-06 -1.13603e-06 -1.15204e-06 -1.12577e-06 -1.05956e-06 -9.59443e-07 -8.34337e-07 -6.94871e-07 -5.52029e-07 -4.15857e-07 -2.94386e-07 -1.92943e-07 -1.13923e-07 -5.70056e-08 -1.97403e-08 1.66601e-09 1.1518e-08 1.39175e-08 1.22682e-08 9.03724e-09 5.74857e-09 3.1421e-09 1.41084e-09 4.40838e-10 1.7454e-12 -1.32445e-10 -1.28096e-10 -8.2974e-11 -4.13633e-11 -1.55218e-11 -3.39668e-12 6.52713e-13 1.20035e-12 7.63614e-13 3.24774e-13 9.05181e-14 6.45773e-15 -9.99025e-15 -7.07175e-15 -2.76368e-15 -6.19834e-16 1.6602e-17 8.59861e-17 4.22639e-17 1.10712e-17 5.84217e-19 -9.35182e-19 -4.8323e-19 -1.14053e-19 3.99195e-22 1.12159e-20 4.3262e-21 5.96311e-22 -1.67691e-22 -1.08965e-22 -2.22801e-23 1.63425e-24 2.23092e-24 5.34277e-25 -1.11052e-26 -4.07106e-26 -9.91902e-27 1.91874e-28 6.84134e-28 1.48666e-28 -7.63241e-30 -1.03497e-29 -1.74603e-30 2.18426e-31 1.36643e-31 1.45998e-32 -4.10046e-33 -1.40458e-33 -5.09613e-35 5.14945e-35 9.89512e-36 -5.06231e-37 -4.2085e-37 -3.84284e-38 8.30516e-39 2.09708e-39 8.88319e-42 -5.2046e-41 -5.3894e-42 5.78947e-43 1.06885e-43 0 -0 0 0 0 0 
0 0 0 0 -0 0 7.97968e-44 5.40852e-43 -5.20672e-42 -5.23264e-41 1.17411e-41 2.25226e-39 8.92669e-39 -4.55522e-38 -4.89018e-37 -5.05764e-37 1.25787e-35 6.31435e-35 -8.71741e-35 -1.89225e-33 -5.08888e-33 2.28383e-32 1.91471e-31 2.47734e-31 -2.76504e-30 -1.47257e-29 -4.82761e-30 2.37411e-28 9.65433e-28 -2.65344e-28 -1.63278e-26 -5.78885e-26 2.27028e-26 9.25546e-25 3.26677e-24 1.64415e-25 -4.23624e-23 -1.69866e-22 -1.54946e-22 1.40799e-21 7.50716e-21 1.48993e-20 -2.02875e-20 -2.41807e-19 -8.0555e-19 -9.92045e-19 3.58357e-18 2.46433e-17 7.29592e-17 9.52726e-17 -2.16086e-16 -1.71569e-15 -5.60449e-15 -1.06462e-14 -3.7119e-15 5.90629e-14 2.67862e-13 7.1391e-13 1.24908e-12 8.64174e-13 -3.35779e-12 -1.71399e-11 -4.78803e-11 -9.78668e-11 -1.47262e-10 -1.24475e-10 1.30461e-10 8.89042e-10 2.50509e-09 5.28126e-09 9.18461e-09 1.34001e-08 1.57792e-08 1.23281e-08 -3.04278e-09 -3.82573e-08 -1.02097e-07 -2.02453e-07 -3.43944e-07 -5.25282e-07 -7.36905e-07 -9.59487e-07 -1.16384e-06 -1.31247e-06 -1.36279e-06 -1.27161e-06 -1.00033e-06 -5.20059e-07 1.84212e-07 1.11072e-06 2.24001e-06 3.53572e-06 4.94722e-06 6.41326e-06 7.86651e-06 9.23829e-06 1.0463e-05 1.14818e-05 1.22462e-05 1.27197e-05 1.28801e-05 1.27197e-05 1.22462e-05 1.14818e-05 1.0463e-05 9.23829e-06 7.86651e-06 6.41326e-06 4.94722e-06 3.53572e-06 2.24001e-06 1.11072e-06 1.84212e-07 -5.20059e-07 -1.00033e-06 -1.27161e-06 -1.36279e-06 -1.31247e-06 -1.16384e-06 -9.59487e-07 -7.36905e-07 -5.25282e-07 -3.43944e-07 -2.02453e-07 -1.02097e-07 -3.82573e-08 -3.04278e-09 1.23281e-08 1.57792e-08 1.34001e-08 9.18461e-09 5.28126e-09 2.50509e-09 8.89042e-10 1.30461e-10 -1.24475e-10 -1.47262e-10 -9.78668e-11 -4.78803e-11 -1.71399e-11 -3.35779e-12 8.64174e-13 1.24908e-12 7.1391e-13 2.67862e-13 5.90629e-14 -3.7119e-15 -1.06462e-14 -5.60449e-15 -1.71569e-15 -2.16086e-16 9.52726e-17 7.29592e-17 2.46433e-17 3.58357e-18 -9.92045e-19 -8.0555e-19 -2.41807e-19 -2.02875e-20 1.48993e-20 7.50716e-21 1.40799e-21 -1.54946e-22 -1.69866e-22 -4.23625e-23 1.64398e-25 3.26677e-24 9.25546e-25 2.27027e-26 -5.78885e-26 -1.63278e-26 -2.6526e-28 9.65481e-28 2.36342e-28 -4.74629e-30 -1.46192e-29 -2.74568e-30 2.46124e-31 1.90203e-31 2.26861e-32 -5.05703e-33 -1.88028e-33 -8.65924e-35 6.27608e-35 1.25018e-35 -5.03008e-37 -4.86134e-37 -4.52787e-38 8.87604e-39 2.23932e-39 1.16457e-41 -5.2046e-41 -5.19857e-42 5.40852e-43 7.97968e-44 0 0 0 0 0 
0 0 0 0 -0 4.05501e-44 4.75557e-43 -4.71327e-42 -4.94738e-41 8.96772e-42 2.25226e-39 9.12458e-39 -4.94042e-38 -5.33017e-37 -4.92135e-37 1.48483e-35 7.31183e-35 -1.26129e-34 -2.38633e-33 -5.99059e-33 3.26031e-32 2.52846e-31 2.58824e-31 -4.06341e-30 -1.98602e-29 1.31915e-30 3.56121e-28 1.29773e-27 -1.09647e-27 -2.51273e-26 -7.77325e-26 8.72931e-26 1.4834e-24 4.47131e-24 -3.22576e-24 -7.27817e-23 -2.45048e-22 -5.54198e-23 2.77504e-21 1.18739e-20 1.65211e-20 -6.43961e-20 -4.45757e-19 -1.18755e-18 -4.54765e-19 9.85335e-18 4.64546e-17 1.0689e-16 3.71346e-17 -7.82577e-16 -3.68263e-15 -9.35358e-15 -1.07663e-14 2.53486e-14 1.84383e-13 5.89844e-13 1.20517e-12 1.19252e-12 -2.36677e-12 -1.59084e-11 -4.86808e-11 -1.04645e-10 -1.59238e-10 -1.1537e-10 2.54202e-10 1.34327e-09 3.6532e-09 7.53117e-09 1.26015e-08 1.68604e-08 1.55672e-08 2.89167e-10 -4.13222e-08 -1.2435e-07 -2.63475e-07 -4.67722e-07 -7.33549e-07 -1.03743e-06 -1.3296e-06 -1.53091e-06 -1.53424e-06 -1.21135e-06 -4.24988e-07 9.55439e-07 3.03665e-06 5.88573e-06 9.51837e-06 1.38929e-05 1.89116e-05 2.44281e-05 3.02603e-05 3.62059e-05 4.20596e-05 4.76277e-05 5.27392e-05 5.72536e-05 6.10622e-05 6.40876e-05 6.62781e-05 6.76029e-05 6.80461e-05 6.76029e-05 6.62781e-05 6.40876e-05 6.10622e-05 5.72536e-05 5.27392e-05 4.76277e-05 4.20596e-05 3.62059e-05 3.02603e-05 2.44281e-05 1.89116e-05 1.38929e-05 9.51837e-06 5.88573e-06 3.03665e-06 9.55439e-07 -4.24988e-07 -1.21135e-06 -1.53424e-06 -1.53091e-06 -1.3296e-06 -1.03743e-06 -7.33549e-07 -4.67722e-07 -2.63475e-07 -1.2435e-07 -4.13222e-08 2.89167e-10 1.55672e-08 1.68604e-08 1.26015e-08 7.53117e-09 3.6532e-09 1.34327e-09 2.54202e-10 -1.1537e-10 -1.59238e-10 -1.04645e-10 -4.86808e-11 -1.59084e-11 -2.36677e-12 1.19252e-12 1.20517e-12 5.89844e-13 1.84383e-13 2.53486e-14 -1.07663e-14 -9.35358e-15 -3.68263e-15 -7.82577e-16 3.71346e-17 1.0689e-16 4.64546e-17 9.85335e-18 -4.54765e-19 -1.18755e-18 -4.45757e-19 -6.43962e-20 1.65211e-20 1.18739e-20 2.77504e-21 -5.54196e-23 -2.45048e-22 -7.27818e-23 -3.22577e-24 4.47131e-24 1.4834e-24 8.72929e-26 -7.77323e-26 -2.51273e-26 -1.09862e-27 1.28867e-27 3.53521e-28 1.29818e-30 -1.97253e-29 -4.03586e-30 2.57216e-31 2.51208e-31 3.23897e-32 -5.95394e-33 -2.37148e-33 -1.25306e-34 7.26817e-35 1.47586e-35 -4.89527e-37 -5.29909e-37 -4.9111e-38 9.07337e-39 2.23944e-39 8.88591e-42 -4.91881e-41 -4.64809e-42 4.75557e-43 4.59568e-44 2.94011e-45 -0 0 0 
0 0 -0 1.30782e-46 6.75263e-45 3.69609e-43 -3.87853e-42 -4.42828e-41 1.5252e-42 2.1093e-39 8.92669e-39 -4.94042e-38 -5.48517e-37 -4.81048e-37 1.63953e-35 8.05606e-35 -1.61633e-34 -2.83782e-33 -6.75821e-33 4.30897e-32 3.17053e-31 2.50039e-31 -5.60478e-30 -2.56043e-29 1.12277e-29 5.0506e-28 1.66894e-27 -2.382e-27 -3.64483e-26 -9.8984e-26 1.91777e-25 2.22453e-24 5.74006e-24 -9.33161e-24 -1.15258e-22 -3.28562e-22 1.85957e-22 4.85088e-21 1.72824e-20 1.32033e-20 -1.42925e-19 -7.37092e-19 -1.53753e-18 1.2375e-18 2.08692e-17 7.67736e-17 1.2858e-16 -1.63615e-16 -1.87036e-15 -6.62777e-15 -1.26626e-14 -1.53991e-16 9.8553e-14 4.1716e-13 1.03785e-12 1.44466e-12 -8.24155e-13 -1.21596e-11 -4.3279e-11 -1.01607e-10 -1.64249e-10 -1.20266e-10 3.12884e-10 1.64985e-09 4.55334e-09 9.40898e-09 1.53479e-08 1.86337e-08 1.0669e-08 -2.36063e-08 -1.05594e-07 -2.59553e-07 -5.04348e-07 -8.40023e-07 -1.23041e-06 -1.585e-06 -1.74487e-06 -1.47806e-06 -4.88943e-07 1.55638e-06 4.98999e-06 1.00927e-05 1.70427e-05 2.58729e-05 3.64444e-05 4.84425e-05 6.13987e-05 7.47341e-05 8.7821e-05 0.00010005 0.000110898 0.000119977 0.000127079 0.000132179 0.00013543 0.000137132 0.000137679 0.000137508 0.000137034 0.000136599 0.000136427 0.000136599 0.000137034 0.000137508 0.000137679 0.000137132 0.00013543 0.000132179 0.000127079 0.000119977 0.000110898 0.00010005 8.7821e-05 7.47341e-05 6.13987e-05 4.84425e-05 3.64444e-05 2.58729e-05 1.70427e-05 1.00927e-05 4.98999e-06 1.55638e-06 -4.88943e-07 -1.47806e-06 -1.74487e-06 -1.585e-06 -1.23041e-06 -8.40023e-07 -5.04348e-07 -2.59553e-07 -1.05594e-07 -2.36063e-08 1.0669e-08 1.86337e-08 1.53479e-08 9.40898e-09 4.55334e-09 1.64985e-09 3.12884e-10 -1.20266e-10 -1.64249e-10 -1.01607e-10 -4.3279e-11 -1.21596e-11 -8.24155e-13 1.44466e-12 1.03785e-12 4.1716e-13 9.8553e-14 -1.53991e-16 -1.26626e-14 -6.62777e-15 -1.87036e-15 -1.63615e-16 1.2858e-16 7.67736e-17 2.08692e-17 1.2375e-18 -1.53753e-18 -7.37092e-19 -1.42925e-19 1.32033e-20 1.72824e-20 4.85088e-21 1.85958e-22 -3.28562e-22 -1.15258e-22 -9.33163e-24 5.74004e-24 2.22453e-24 1.91777e-25 -9.8987e-26 -3.64589e-26 -2.38468e-27 1.65543e-27 5.014e-28 1.11314e-29 -2.54346e-29 -5.56746e-30 2.48583e-31 3.15039e-31 4.28123e-32 -6.71772e-33 -2.82041e-33 -1.60597e-34 8.00857e-35 1.62974e-35 -4.78548e-37 -5.45351e-37 -4.9114e-38 8.87689e-39 2.0974e-39 1.59199e-42 -4.39224e-41 -3.84053e-42 4.08872e-43 1.18351e-43 0 0 0 
0 0 0 6.64186e-44 2.62399e-43 -2.95186e-42 -3.7262e-41 -8.20576e-42 1.84912e-39 8.35307e-39 -4.55522e-38 -5.33017e-37 -4.81048e-37 1.69448e-35 8.45377e-35 -1.86625e-34 -3.18425e-33 -7.33664e-33 5.29586e-32 3.77767e-31 2.23584e-31 -7.27421e-30 -3.15752e-29 2.48259e-29 6.7995e-28 2.06263e-27 -4.1519e-27 -5.01411e-26 -1.20055e-25 3.42135e-25 3.1466e-24 6.93071e-24 -1.88312e-23 -1.70357e-22 -4.10535e-22 6.26092e-22 7.73635e-21 2.32869e-20 1.32057e-21 -2.66105e-19 -1.11188e-18 -1.69758e-18 4.76957e-18 3.78334e-17 1.12858e-16 1.10865e-16 -6.03931e-16 -3.63755e-15 -1.02631e-14 -1.25431e-14 3.23975e-14 2.39948e-13 7.67339e-13 1.45008e-12 6.17753e-13 -7.18612e-12 -3.30446e-11 -8.86304e-11 -1.60081e-10 -1.42037e-10 2.72127e-10 1.6901e-09 4.94162e-09 1.05065e-08 1.70622e-08 1.89352e-08 2.83774e-09 -5.46743e-08 -1.86319e-07 -4.26198e-07 -7.91628e-07 -1.25356e-06 -1.69844e-06 -1.88961e-06 -1.44056e-06 1.85583e-07 3.63784e-06 9.59569e-06 1.86483e-05 3.11515e-05 4.7086e-05 6.59497e-05 8.67064e-05 0.000107812 0.000127326 0.000143086 0.000152944 0.000155012 0.000147893 0.000130869 0.000104006 6.81984e-05 2.51114e-05 -2.29444e-05 -7.31873e-05 -0.000122588 -0.000168096 -0.000206864 -0.00023645 -0.000254987 -0.000261298 -0.000254987 -0.00023645 -0.000206864 -0.000168096 -0.000122588 -7.31873e-05 -2.29444e-05 2.51114e-05 6.81984e-05 0.000104006 0.000130869 0.000147893 0.000155012 0.000152944 0.000143086 0.000127326 0.000107812 8.67064e-05 6.59497e-05 4.7086e-05 3.11515e-05 1.86483e-05 9.59569e-06 3.63784e-06 1.85583e-07 -1.44056e-06 -1.88961e-06 -1.69844e-06 -1.25356e-06 -7.91628e-07 -4.26198e-07 -1.86319e-07 -5.46743e-08 2.83774e-09 1.89352e-08 1.70622e-08 1.05065e-08 4.94162e-09 1.6901e-09 2.72127e-10 -1.42037e-10 -1.60081e-10 -8.86304e-11 -3.30446e-11 -7.18612e-12 6.17753e-13 1.45008e-12 7.67339e-13 2.39948e-13 3.23975e-14 -1.25431e-14 -1.02631e-14 -3.63755e-15 -6.03931e-16 1.10865e-16 1.12858e-16 3.78334e-17 4.76957e-18 -1.69758e-18 -1.11188e-18 -2.66105e-19 1.3205e-21 2.32869e-20 7.73637e-21 6.26094e-22 -4.10535e-22 -1.70357e-22 -1.88312e-23 6.93071e-24 3.14659e-24 3.42124e-25 -1.20032e-25 -4.98766e-26 -4.1274e-27 2.04821e-27 6.75286e-28 2.46414e-29 -3.137e-29 -7.22661e-30 2.2238e-31 3.75406e-31 5.26228e-32 -7.29342e-33 -3.16497e-33 -1.85447e-34 8.40451e-35 1.68448e-35 -4.78566e-37 -5.29969e-37 -4.52872e-38 8.30679e-39 1.83885e-39 -8.12539e-42 -3.70527e-41 -2.9044e-42 -1.83682e-43 -0 0 0 