<?xml version="1.0"?>
<VTKFile type="ImageData" version="0.1" byte_order="LittleEndian">
<ImageData WholeExtent="0 199 0 199 0 0" Origin="0 0 0" Spacing="15 15 0">
<Piece Extent="0 199 0 199 0 0">
<PointData Scalars="Amplitude">
<DataArray type="Float32" Name="Amplitude" format="ascii">
0 0 0 0 0 0 0 0 0 0 0 0 0 0 0 0 0 0 0 0 0 0 0 0 0 0 0 0 0 0 0 0 0 0 0 0 0 0 0 0 0 0 0 0 0 0 0 0 0 0 0 0 0 0 0 0 0 0 0 0 0 0 0 0 0 0 0 0 0 0 0 0 0 0 0 0 0 0 0 0 0 0 0 0 0 0 0 0 0 0 0 0 0 0 0 0 0 0 0 0 0 0 0 0 0 0 0 0 0 0 0 0 0 0 0 0 0 0 0 0 0 0 0 0 0 0 0 0 0 0 0 0 0 0 0 0 0 0 0 0 0 0 0 0 0 0 0 0 0 0 0 0 0 0 0 0 0 0 0 0 0 0 0 0 0 0 0 0 0 0 0 0 0 0 0 0 0 0 0 0 0 0 0 0 0 0 0 0 0 0 0 0 0 0 0 0 0 0 0 0 
0 0 0 0 0 0 0 0 0 0 0 0 0 0 0 0 0 0 0 0 0 0 0 0 0 0 0 0 0 0 0 0 0 0 0 0 0 0 0 0 0 0 0 0 0 0 0 0 0 0 0 0 0 0 0 0 0 0 0 0 0 0 0 0 0 0 0 0 0 0 0 0 0 0 0 0 0 0 0 0 0 0 0 0 0 0 0 0 0 0 0 0 0 0 0 0 0 0 0 0 0 0 0 0 0 0 0 0 0 0 0 0 0 0 0 0 0 0 0 0 0 0 0 0 0 0 0 0 0 0 0 0 0 0 0 0 0 0 0 0 0 0 0 0 0 0 0 0 0 0 0 0 0 0 0 0 0 0 0 0 0 0 0 0 0 0 0 0 0 0 0 0 0 0 0 0 0 0 0 0 0 0 0 0 0 0 0 0 0 0 0 0 0 0 0 0 0 0 0 0 
0 0 0 0 0 0 0 0 0 0 0 0 0 0 0 0 0 0 0 0 0 0 0 0 0 0 0 0 0 0 0 0 0 0 0 0 0 0 0 0 0 0 0 0 0 0 0 0 0 0 0 0 0 0 0 0 0 0 0 0 0 0 0 0 0 0 0 0 0 0 0 0 0 0 0 0 0 0 0 0 0 0 0 0 0 0 0 0 0 0 0 0 0 0 0 0 0 0 0 0 0 0 0 0 0 0 0 0 0 0 0 0 0 0 0 0 0 0 0 0 0 0 0 0 0 0 0 0 0 0 0 0 0 0 0 0 0 0 0 0 0 0 0 0 0 0 0 0 0 0 0 0 0 0 0 0 0 0 0 0 0 0 0 0 0 0 0 0 0 0 0 0 0 0 0 0 0 0 0 0 0 0 0 0 0 0 0 0 0 0 0 0 0 0 0 0 0 0 0 0 
0 0 0 0 0 0 0 0 0 0 0 0 0 0 0 0 0 0 0 0 0 0 0 0 0 0 0 0 0 0 0 0 0 0 0 0 0 0 0 0 0 0 0 0 0 0 0 0 0 0 0 0 0 0 0 0 0 0 0 0 0 0 0 0 0 0 0 0 0 0 0 0 0 0 0 0 0 0 0 0 0 0 0 0 0 0 0 0 0 0 0 0 0 0 0 0 0 0 0 0 0 0 0 0 0 0 0 0 0 0 0 0 0 0 0 0 0 0 0 0 0 0 0 0 0 0 0 0 0 0 0 0 0 0 0 0 0 0 0 0 0 0 0 0 0 0 0 0 0 0 0 0 0 0 0 0 0 0 0 0 0 0 0 0 0 0 0 0 0 0 0 0 0 0 0 0 0 0 0 0 0 0 0 0 0 0 0 0 0 0 0 0 0 0 0 0 0 0 0 0 
0 0 0 0 0 0 0 0 0 0 0 0 0 0 0 0 0 0 0 0 0 0 0 0 0 0 0 0 0 0 0 0 0 0 0 0 0 0 0 0 0 0 0 0 0 0 0 0 0 0 0 0 0 0 0 0 0 0 0 0 0 0 0 0 0 0 0 0 0 0 0 0 0 0 0 0 0 0 0 0 0 0 0 0 0 0 0 0 0 0 0 0 0 0 0 0 0 0 0 0 0 0 0 0 0 0 0 0 0 0 0 0 0 0 0 0 0 0 0 0 0 0 0 0 0 0 0 0 0 0 0 0 0 0 0 0 0 0 0 0 0 0 0 0 0 0 0 0 0 0 0 0 0 0 0 0 0 0 0 0 0 0 0 0 0 0 0 0 0 0 0 0 0 0 0 0 0 0 0 0 0 0 0 0 0 0 0 0 0 0 0 0 0 0 0 0 0 0 0 0 
0 0 0 0 0 0 0 0 0 0 0 0 0 0 0 0 0 0 0 0 0 0 0 0 0 0 0 0 0 0 0 0 0 0 0 0 0 0 0 0 0 0 0 0 0 0 0 0 0 0 0 0 0 0 0 0 0 0 0 0 0 0 0 0 0 0 0 0 0 0 0 0 0 0 0 0 0 0 0 0 0 0 0 0 0 0 0 0 0 0 0 0 0 0 0 0 0 0 0 0 0 0 0 0 0 0 0 0 0 0 0 0 0 0 0 0 0 0 0 0 0 0 0 0 0 0 0 0 0 0 0 0 0 0 0 0 0 0 0 0 0 0 0 0 0 0 0 0 0 0 0 0 0 0 0 0 0 0 0 0 0 0 0 0 0 0 0 0 0 0 0 0 0 0 0 0 0 0 0 0 0 0 0 0 0 0 0 0 0 0 0 0 0 0 0 0 0 0 0 0 
0 0 0 0 0 0 0 0 0 0 0 0 0 0 0 0 0 0 0 0 0 0 0 0 0 0 0 0 0 0 0 0 0 0 0 0 0 0 0 0 0 0 0 0 0 0 0 0 0 0 0 0 0 0 0 0 0 0 0 0 0 0 0 0 0 0 0 0 0 0 0 0 0 0 0 0 0 0 0 0 0 0 0 0 0 0 0 0 0 0 0 0 0 0 0 0 0 0 0 0 0 0 0 0 0 0 0 0 0 0 0 0 0 0 0 0 0 0 0 0 0 0 0 0 0 0 0 0 0 0 0 0 0 0 0 0 0 0 0 0 0 0 0 0 0 0 0 0 0 0 0 0 0 0 0 0 0 0 0 0 0 0 0 0 0 0 0 0 0 0 0 0 0 0 0 0 0 0 0 0 0 0 0 0 0 0 0 0 0 0 0 0 0 0 0 0 0 0 0 0 
0 0 0 0 0 0 0 0 0 0 0 0 0 0 0 0 0 0 0 0 0 0 0 0 0 0 0 0 0 0 0 0 0 0 0 0 0 0 0 0 0 0 0 0 0 0 0 0 0 0 0 0 0 0 0 0 0 0 0 0 0 0 0 0 0 0 0 0 0 0 0 0 0 0 0 0 0 0 0 0 0 0 0 0 0 0 0 0 0 0 0 0 0 0 0 -0 -0 -0 -0 -0 -0 -0 -0 -0 -0 -0 0 0 0 0 0 0 0 0 0 0 0 0 0 0 0 0 0 0 0 0 0 0 0 0 0 0 0 0 0 0 0 0 0 0 0 0 0 0 0 0 0 0 0 0 0 0 0 0 0 0 0 0 0 0 0 0 0 0 0 0 0 0 0 0 0 0 0 0 0 0 0 0 0 0 0 0 0 0 0 0 0 0 0 0 0 0 0 0 0 0 0 0 0 0 
0 0 0 0 0 0 0 0 0 0 0 0 0 0 0 0 0 0 0 0 0 0 0 0 0 0 0 0 0 0 0 0 0 0 0 0 0 0 0 0 0 0 0 0 0 0 0 0 0 0 0 0 0 0 0 0 0 0 0 0 0 0 0 0 0 0 0 0 0 0 0 0 0 0 0 0 0 0 0 0 0 0 0 0 0 0 0 0 0 0 -0 -0 -0 -0 -0 -0 -0 -0 -0 -0 -0 -0 -0 -0 -0 -0 -0 -0 -0 -0 -0 0 0 0 0 0 0 0 0 0 0 0 0 0 0 0 0 0 0 0 0 0 0 0 0 0 0 0 0 0 0 0 0 0 0 0 0 0 0 0 0 0 0 0 0 0 0 0 0 0 0 0 0 0 0 0 0 0 0 0 0 0 0 0 0 0 0 0 0 0 0 0 0 0 0 0 0 0 0 0 0 0 0 0 0 0 0 0 0 0 
0 0 0 0 0 0 0 0 0 0 0 0 0 0 0 0 0 0 0 0 0 0 0 0 0 0 0 0 0 0 0 0 0 0 0 0 0 0 0 0 0 0 0 0 0 0 0 0 0 0 0 0 0 0 0 0 0 0 0 0 0 0 0 0 0 0 0 0 0 0 0 0 0 0 0 0 0 0 0 0 0 0 0 0 0 0 0 -0 -0 -0 -0 -0 -0 -0 0 2.8975e-44 9.79631e-44 2.00066e-43 3.35282e-43 4.27726e-43 4.70499e-43 4.27726e-43 3.35282e-43 2.00066e-43 9.79631e-44 2.8975e-44 0 -0 -0 -0 -0 -0 -0 -0 0 0 0 0 0 0 0 0 0 0 0 0 0 0 0 0 0 0 0 0 0 0 0 0 0 0 0 0 0 0 0 0 0 0 0 0 0 0 0 0 0 0 0 0 0 0 0 0 0 0 0 0 0 0 0 0 0 0 0 0 0 0 0 0 0 0 0 0 0 0 0 0 0 0 0 0 0 0 0 0 0 0 0 0 0 0 
0 0 0 0 0 0 0 0 0 0 0 0 0 0 0 0 0 0 0 0 0 0 0 0 0 0 0 0 0 0 0 0 0 0 0 0 0 0 0 0 0 0 0 0 0 0 0 0 0 0 0 0 0 0 0 0 0 0 0 0 0 0 0 0 0 0 0 0 0 0 0 0 0 0 0 0 0 0 0 0 0 0 0 0 0 -0 -0 -0 -0 -0 8.29412e-45 1.41e-43 6.23441e-43 1.76526e-42 3.6577e-42 6.32565e-42 9.51612e-42 1.27121e-41 1.55846e-41 1.73941e-41 1.80978e-41 1.73941e-41 1.55846e-41 1.27121e-41 9.51612e-42 6.32565e-42 3.6577e-42 1.76526e-42 6.23441e-43 1.41e-43 8.29412e-45 -0 -0 -0 -0 -0 0 0 0 0 0 0 0 0 0 0 0 0 0 0 0 0 0 0 0 0 0 0 0 0 0 0 0 0 0 0 0 0 0 0 0 0 0 0 0 0 0 0 0 0 0 0 0 0 0 0 0 0 0 0 0 0 0 0 0 0 0 0 0 0 0 0 0 0 0 0 0 0 0 0 0 0 0 0 0 0 0 0 0 0 
0 0 0 0 0 0 0 0 0 0 0 0 0 0 0 0 0 0 0 0 0 0 0 0 0 0 0 0 0 0 0 0 0 0 0 0 0 0 0 0 0 0 0 0 0 0 0 0 0 0 0 0 0 0 0 0 0 0 0 0 0 0 0 0 0 0 0 0 0 0 0 0 0 0 0 0 0 0 0 0 0 0 0 -0 -0 -0 -0 4.15434e-45 2.10487e-43 1.17568e-42 3.89816e-42 9.35696e-42 1.82168e-41 2.9968e-41 4.25709e-41 5.38029e-41 6.13582e-41 6.45543e-41 6.43646e-41 6.28441e-41 6.19744e-41 6.28441e-41 6.43646e-41 6.45543e-41 6.13582e-41 5.38029e-41 4.25709e-41 2.9968e-41 1.82168e-41 9.35696e-42 3.89816e-42 1.17568e-42 2.10487e-43 4.15434e-45 -0 -0 -0 -0 0 0 0 0 0 0 0 0 0 0 0 0 0 0 0 0 0 0 0 0 0 0 0 0 0 0 0 0 0 0 0 0 0 0 0 0 0 0 0 0 0 0 0 0 0 0 0 0 0 0 0 0 0 0 0 0 0 0 0 0 0 0 0 0 0 0 0 0 0 0 0 0 0 0 0 0 0 0 0 0 0 0 
0 0 0 0 0 0 0 0 0 0 0 0 0 0 0 0 0 0 0 0 0 0 0 0 0 0 0 0 0 0 0 0 0 0 0 0 0 0 0 0 0 0 0 0 0 0 0 0 0 0 0 0 0 0 0 0 0 0 0 0 0 0 0 0 0 0 0 0 0 0 0 0 0 0 0 0 0 0 0 0 0 -0 -0 -0 -0 2.91279e-44 5.78397e-43 2.9766e-42 9.41942e-42 2.14978e-41 3.74127e-41 4.85424e-41 3.78843e-41 -1.67929e-41 -1.34126e-40 -3.1907e-40 -5.56632e-40 -8.12727e-40 -1.04221e-39 -1.2011e-39 -1.25785e-39 -1.2011e-39 -1.04221e-39 -8.12727e-40 -5.56632e-40 -3.1907e-40 -1.34126e-40 -1.67929e-41 3.78843e-41 4.85424e-41 3.74127e-41 2.14978e-41 9.41942e-42 2.9766e-42 5.78397e-43 2.91279e-44 -0 -0 -0 -0 0 0 0 0 0 0 0 0 0 0 0 0 0 0 0 0 0 0 0 0 0 0 0 0 0 0 0 0 0 0 0 0 0 0 0 0 0 0 0 0 0 0 0 0 0 0 0 0 0 0 0 0 0 0 0 0 0 0 0 0 0 0 0 0 0 0 0 0 0 0 0 0 0 0 0 0 0 0 0 0 
0 0 0 0 0 0 0 0 0 0 0 0 0 0 0 0 0 0 0 0 0 0 0 0 0 0 0 0 0 0 0 0 0 0 0 0 0 0 0 0 0 0 0 0 0 0 0 0 0 0 0 0 0 0 0 0 0 0 0 0 0 0 0 0 0 0 0 0 0 0 0 0 0 0 0 0 0 0 0 0 -0 -0 -0 2.9172e-44 7.59861e-43 4.24105e-42 1.3515e-41 2.8665e-41 3.60163e-41 -7.3569e-42 -1.83614e-40 -6.01421e-40 -1.35483e-39 -2.46679e-39 -3.8525e-39 -5.33231e-39 -6.6946e-39 -7.77497e-39 -8.50541e-39 -8.90578e-39 -9.03035e-39 -8.90578e-39 -8.50541e-39 -7.77497e-39 -6.6946e-39 -5.33231e-39 -3.8525e-39 -2.46679e-39 -1.35483e-39 -6.01421e-40 -1.83614e-40 -7.3569e-42 3.60163e-41 2.8665e-41 1.3515e-41 4.24105e-42 7.59861e-43 2.9172e-44 -0 -0 -0 0 0 0 0 0 0 0 0 0 0 0 0 0 0 0 0 0 0 0 0 0 0 0 0 0 0 0 0 0 0 0 0 0 0 0 0 0 0 0 0 0 0 0 0 0 0 0 0 0 0 0 0 0 0 0 0 0 0 0 0 0 0 0 0 0 0 0 0 0 0 0 0 0 0 0 0 0 0 0 
0 0 0 0 0 0 0 0 0 0 0 0 0 0 0 0 0 0 0 0 0 0 0 0 0 0 0 0 0 0 0 0 0 0 0 0 0 0 0 0 0 0 0 0 0 0 0 0 0 0 0 0 0 0 0 0 0 0 0 0 0 0 0 0 0 0 0 0 0 0 0 0 0 0 0 0 0 0 -0 -0 -0 8.34647e-45 5.84253e-43 4.05221e-42 1.41403e-41 2.80914e-41 1.14569e-41 -1.43925e-40 -6.48394e-40 -1.75924e-39 -3.58418e-39 -5.78124e-39 -7.34079e-39 -6.68721e-39 -2.20315e-39 6.99435e-39 2.04084e-38 3.60088e-38 5.06892e-38 6.11644e-38 6.49611e-38 6.11644e-38 5.06892e-38 3.60088e-38 2.04084e-38 6.99435e-39 -2.20315e-39 -6.68721e-39 -7.34079e-39 -5.78124e-39 -3.58418e-39 -1.75924e-39 -6.48394e-40 -1.43925e-40 1.14569e-41 2.80914e-41 1.41403e-41 4.05221e-42 5.84253e-43 8.34647e-45 -0 -0 -0 0 0 0 0 0 0 0 0 0 0 0 0 0 0 0 0 0 0 0 0 0 0 0 0 0 0 0 0 0 0 0 0 0 0 0 0 0 0 0 0 0 0 0 0 0 0 0 0 0 0 0 0 0 0 0 0 0 0 0 0 0 0 0 0 0 0 0 0 0 0 0 0 0 0 0 0 0 
0 0 0 0 0 0 0 0 0 0 0 0 0 0 0 0 0 0 0 0 0 0 0 0 0 0 0 0 0 0 0 0 0 0 0 0 0 0 0 0 0 0 0 0 0 0 0 0 0 0 0 0 0 0 0 0 0 0 0 0 0 0 0 0 0 0 0 0 0 0 0 0 0 0 0 0 0 -0 -0 0 2.38177e-43 2.85812e-42 1.22598e-41 2.59028e-41 -4.63121e-42 -2.50849e-40 -1.05685e-39 -2.74487e-39 -4.88515e-39 -4.99617e-39 2.68484e-39 2.7111e-38 7.80245e-38 1.61674e-37 2.76749e-37 4.13057e-37 5.54002e-37 6.81591e-37 7.81171e-37 8.43641e-37 8.64825e-37 8.43641e-37 7.81171e-37 6.81591e-37 5.54002e-37 4.13057e-37 2.76749e-37 1.61674e-37 7.80245e-38 2.7111e-38 2.68484e-39 -4.99617e-39 -4.88515e-39 -2.74487e-39 -1.05685e-39 -2.50849e-40 -4.63121e-42 2.59028e-41 1.22598e-41 2.85812e-42 2.38177e-43 0 -0 -0 0 0 0 0 0 0 0 0 0 0 0 0 0 0 0 0 0 0 0 0 0 0 0 0 0 0 0 0 0 0 0 0 0 0 0 0 0 0 0 0 0 0 0 0 0 0 0 0 0 0 0 0 0 0 0 0 0 0 0 0 0 0 0 0 0 0 0 0 0 0 0 0 0 0 0 0 
0 0 0 0 0 0 0 0 0 0 0 0 0 0 0 0 0 0 0 0 0 0 0 0 0 0 0 0 0 0 0 0 0 0 0 0 0 0 0 0 0 0 0 0 0 0 0 0 0 0 0 0 0 0 0 0 0 0 0 0 0 0 0 0 0 0 0 0 0 0 0 0 0 0 0 -0 -0 -0 4.32279e-44 1.44186e-42 8.87287e-42 2.42578e-41 4.96145e-42 -2.4319e-40 -1.14986e-39 -2.98986e-39 -4.14352e-39 2.54174e-39 3.3767e-38 1.15437e-37 2.72299e-37 5.0717e-37 7.7966e-37 1.00142e-36 1.06003e-36 8.66702e-37 4.05798e-37 -2.41072e-37 -9.11706e-37 -1.41604e-36 -1.60321e-36 -1.41604e-36 -9.11706e-37 -2.41072e-37 4.05798e-37 8.66702e-37 1.06003e-36 1.00142e-36 7.7966e-37 5.0717e-37 2.72299e-37 1.15437e-37 3.3767e-38 2.54174e-39 -4.14352e-39 -2.98986e-39 -1.14986e-39 -2.4319e-40 4.96145e-42 2.42578e-41 8.87287e-42 1.44186e-42 4.32279e-44 -0 -0 -0 0 0 0 0 0 0 0 0 0 0 0 0 0 0 0 0 0 0 0 0 0 0 0 0 0 0 0 0 0 0 0 0 0 0 0 0 0 0 0 0 0 0 0 0 0 0 0 0 0 0 0 0 0 0 0 0 0 0 0 0 0 0 0 0 0 0 0 0 0 0 0 0 0 0 
0 0 0 0 0 0 0 0 0 0 0 0 0 0 0 0 0 0 0 0 0 0 0 0 0 0 0 0 0 0 0 0 0 0 0 0 0 0 0 0 0 0 0 0 0 0 0 0 0 0 0 0 0 0 0 0 0 0 0 0 0 0 0 0 0 0 0 0 0 0 0 0 0 0 -0 -0 0 4.21557e-43 4.89815e-42 1.98578e-41 2.40078e-41 -1.47754e-40 -9.56703e-40 -2.74408e-39 -3.06387e-39 1.00708e-38 6.65044e-38 2.1033e-37 4.60777e-37 7.23853e-37 6.83227e-37 -2.48708e-37 -2.83073e-36 -7.72744e-36 -1.518e-35 -2.47843e-35 -3.55044e-35 -4.59175e-35 -5.45649e-35 -6.02551e-35 -6.22363e-35 -6.02551e-35 -5.45649e-35 -4.59175e-35 -3.55044e-35 -2.47843e-35 -1.518e-35 -7.72744e-36 -2.83073e-36 -2.48708e-37 6.83227e-37 7.23853e-37 4.60777e-37 2.1033e-37 6.65044e-38 1.00708e-38 -3.06387e-39 -2.74408e-39 -9.56703e-40 -1.47754e-40 2.40078e-41 1.98578e-41 4.89815e-42 4.21557e-43 0 -0 -0 0 0 0 0 0 0 0 0 0 0 0 0 0 0 0 0 0 0 0 0 0 0 0 0 0 0 0 0 0 0 0 0 0 0 0 0 0 0 0 0 0 0 0 0 0 0 0 0 0 0 0 0 0 0 0 0 0 0 0 0 0 0 0 0 0 0 0 0 0 0 0 0 0 
0 0 0 0 0 0 0 0 0 0 0 0 0 0 0 0 0 0 0 0 0 0 0 0 0 0 0 0 0 0 0 0 0 0 0 0 0 0 0 0 0 0 0 0 0 0 0 0 0 0 0 0 0 0 0 0 0 0 0 0 0 0 0 0 0 0 0 0 0 0 0 0 0 -0 -0 3.07373e-44 1.7646e-42 1.23634e-41 3.1985e-41 -3.90713e-41 -6.17739e-40 -2.28903e-39 -3.11036e-39 1.03636e-38 7.63801e-38 2.49259e-37 5.03107e-37 4.77983e-37 -8.90757e-37 -5.5903e-36 -1.61674e-35 -3.45573e-35 -6.0489e-35 -9.04588e-35 -1.18261e-34 -1.37239e-34 -1.43296e-34 -1.37026e-34 -1.23737e-34 -1.11192e-34 -1.06128e-34 -1.11192e-34 -1.23737e-34 -1.37026e-34 -1.43296e-34 -1.37239e-34 -1.18261e-34 -9.04588e-35 -6.0489e-35 -3.45573e-35 -1.61674e-35 -5.5903e-36 -8.90757e-37 4.77983e-37 5.03107e-37 2.49259e-37 7.63801e-38 1.03636e-38 -3.11036e-39 -2.28903e-39 -6.17739e-40 -3.90713e-41 3.1985e-41 1.23634e-41 1.7646e-42 3.07373e-44 -0 -0 0 0 0 0 0 0 0 0 0 0 0 0 0 0 0 0 0 0 0 0 0 0 0 0 0 0 0 0 0 0 0 0 0 0 0 0 0 0 0 0 0 0 0 0 0 0 0 0 0 0 0 0 0 0 0 0 0 0 0 0 0 0 0 0 0 0 0 0 0 0 0 0 
0 0 0 0 0 0 0 0 0 0 0 0 0 0 0 0 0 0 0 0 0 0 0 0 0 0 0 0 0 0 0 0 0 0 0 0 0 0 0 0 0 0 0 0 0 0 0 0 0 0 0 0 0 0 0 0 0 0 0 0 0 0 0 0 0 0 0 0 0 0 0 -0 -0 -0 2.93632e-43 5.15535e-42 2.49741e-41 2.75134e-41 -2.71473e-40 -1.61317e-39 -3.50638e-39 4.61193e-39 6.15268e-38 2.29445e-37 4.47356e-37 5.3518e-38 -3.02683e-36 -1.27509e-35 -3.35202e-35 -6.53343e-35 -9.62057e-35 -9.61067e-35 -1.86629e-35 1.85903e-34 5.4987e-34 1.06857e-33 1.69244e-33 2.335e-33 2.89322e-33 3.27225e-33 3.40637e-33 3.27225e-33 2.89322e-33 2.335e-33 1.69244e-33 1.06857e-33 5.4987e-34 1.85903e-34 -1.86629e-35 -9.61067e-35 -9.62057e-35 -6.53343e-35 -3.35202e-35 -1.27509e-35 -3.02683e-36 5.3518e-38 4.47356e-37 2.29445e-37 6.15268e-38 4.61193e-39 -3.50638e-39 -1.61317e-39 -2.71473e-40 2.75134e-41 2.49741e-41 5.15535e-42 2.93632e-43 -0 -0 -0 0 0 0 0 0 0 0 0 0 0 0 0 0 0 0 0 0 0 0 0 0 0 0 0 0 0 0 0 0 0 0 0 0 0 0 0 0 0 0 0 0 0 0 0 0 0 0 0 0 0 0 0 0 0 0 0 0 0 0 0 0 0 0 0 0 0 0 0 0 0 
0 0 0 0 0 0 0 0 0 0 0 0 0 0 0 0 0 0 0 0 0 0 0 0 0 0 0 0 0 0 0 0 0 0 0 0 0 0 0 0 0 0 0 0 0 0 0 0 0 0 0 0 0 0 0 0 0 0 0 0 0 0 0 0 0 0 0 0 0 0 -0 -0 1.39918e-45 1.15992e-42 1.22484e-41 4.01523e-41 -3.82424e-41 -8.38946e-40 -3.09705e-39 -1.5011e-39 3.52318e-38 1.77272e-37 3.97286e-37 -4.69941e-38 -3.89273e-36 -1.6632e-35 -4.2706e-35 -7.11902e-35 -4.95198e-35 1.42606e-34 6.92656e-34 1.80422e-33 3.6011e-33 6.03266e-33 8.84345e-33 1.16416e-32 1.40405e-32 1.57997e-32 1.68862e-32 1.74269e-32 1.75834e-32 1.74269e-32 1.68862e-32 1.57997e-32 1.40405e-32 1.16416e-32 8.84345e-33 6.03266e-33 3.6011e-33 1.80422e-33 6.92656e-34 1.42606e-34 -4.95198e-35 -7.11902e-35 -4.2706e-35 -1.6632e-35 -3.89273e-36 -4.69941e-38 3.97286e-37 1.77272e-37 3.52318e-38 -1.5011e-39 -3.09705e-39 -8.38946e-40 -3.82424e-41 4.01523e-41 1.22484e-41 1.15992e-42 1.39918e-45 -0 -0 0 0 0 0 0 0 0 0 0 0 0 0 0 0 0 0 0 0 0 0 0 0 0 0 0 0 0 0 0 0 0 0 0 0 0 0 0 0 0 0 0 0 0 0 0 0 0 0 0 0 0 0 0 0 0 0 0 0 0 0 0 0 0 0 0 0 0 0 0 
0 0 0 0 0 0 0 0 0 0 0 0 0 0 0 0 0 0 0 0 0 0 0 0 0 0 0 0 0 0 0 0 0 0 0 0 0 0 0 0 0 0 0 0 0 0 0 0 0 0 0 0 0 0 0 0 0 0 0 0 0 0 0 0 0 0 0 0 0 -0 -0 5.45978e-44 3.44806e-42 2.43282e-41 4.72803e-41 -2.48875e-40 -1.91053e-39 -4.19572e-39 1.12014e-38 1.10333e-37 3.43311e-37 1.83236e-37 -3.042e-36 -1.55301e-35 -4.12631e-35 -5.45918e-35 5.94352e-35 5.72594e-34 1.90318e-33 4.41344e-33 7.98584e-33 1.15519e-32 1.29237e-32 9.23553e-33 -2.01341e-33 -2.17196e-32 -4.83394e-32 -7.79023e-32 -1.04922e-31 -1.23867e-31 -1.30677e-31 -1.23867e-31 -1.04922e-31 -7.79023e-32 -4.83394e-32 -2.17196e-32 -2.01341e-33 9.23553e-33 1.29237e-32 1.15519e-32 7.98584e-33 4.41344e-33 1.90318e-33 5.72594e-34 5.94352e-35 -5.45918e-35 -4.12631e-35 -1.55301e-35 -3.042e-36 1.83236e-37 3.43311e-37 1.10333e-37 1.12014e-38 -4.19572e-39 -1.91053e-39 -2.48875e-40 4.72803e-41 2.43282e-41 3.44806e-42 5.45978e-44 -0 -0 0 0 0 0 0 0 0 0 0 0 0 0 0 0 0 0 0 0 0 0 0 0 0 0 0 0 0 0 0 0 0 0 0 0 0 0 0 0 0 0 0 0 0 0 0 0 0 0 0 0 0 0 0 0 0 0 0 0 0 0 0 0 0 0 0 0 0 0 
0 0 0 0 0 0 0 0 0 0 0 0 0 0 0 0 0 0 0 0 0 0 0 0 0 0 0 0 0 0 0 0 0 0 0 0 0 0 0 0 0 0 0 0 0 0 0 0 0 0 0 0 0 0 0 0 0 0 0 0 0 0 0 0 0 0 0 0 -0 -7.70295e-44 3.19322e-43 8.1175e-42 4.18354e-41 2.04044e-41 -7.31136e-40 -3.50171e-39 -2.26809e-39 4.7729e-38 2.44845e-37 4.05245e-37 -1.42089e-36 -1.1289e-35 -3.4945e-35 -4.31772e-35 1.22039e-34 8.69276e-34 2.80358e-33 6.10307e-33 9.0328e-33 5.96709e-33 -1.37379e-32 -6.43203e-32 -1.59014e-31 -3.03817e-31 -4.92861e-31 -7.08216e-31 -9.24603e-31 -1.11655e-30 -1.26438e-30 -1.3564e-30 -1.38749e-30 -1.3564e-30 -1.26438e-30 -1.11655e-30 -9.24603e-31 -7.08216e-31 -4.92861e-31 -3.03817e-31 -1.59014e-31 -6.43203e-32 -1.37379e-32 5.96709e-33 9.0328e-33 6.10307e-33 2.80358e-33 8.69276e-34 1.22039e-34 -4.31772e-35 -3.4945e-35 -1.1289e-35 -1.42089e-36 4.05245e-37 2.44845e-37 4.7729e-38 -2.26809e-39 -3.50171e-39 -7.31136e-40 2.04044e-41 4.18354e-41 8.1175e-42 3.19322e-43 -7.70295e-44 -0 0 0 0 0 0 0 0 0 0 0 0 0 0 0 0 0 0 0 0 0 0 0 0 0 0 0 0 0 0 0 0 0 0 0 0 0 0 0 0 0 0 0 0 0 0 0 0 0 0 0 0 0 0 0 0 0 0 0 0 0 0 0 0 0 0 0 0 
0 0 0 0 0 0 0 0 0 0 0 0 0 0 0 0 0 0 0 0 0 0 0 0 0 0 0 0 0 0 0 0 0 0 0 0 0 0 0 0 0 0 0 0 0 0 0 0 0 0 0 0 0 0 0 0 0 0 0 0 0 0 0 0 0 0 0 -4.20288e-45 -2.45168e-43 9.66662e-43 1.63688e-41 6.14909e-41 -8.82002e-41 -1.63566e-39 -5.1691e-39 8.203e-39 1.25204e-37 4.12181e-37 -8.52517e-38 -6.17431e-36 -2.63872e-35 -4.41658e-35 9.0399e-35 8.39319e-34 2.90218e-33 5.9882e-33 5.3288e-33 -1.37607e-32 -7.94922e-32 -2.28512e-31 -4.87216e-31 -8.43847e-31 -1.22717e-30 -1.51088e-30 -1.55205e-30 -1.25166e-30 -6.09399e-31 2.55845e-31 1.13291e-30 1.7841e-30 2.02438e-30 1.7841e-30 1.13291e-30 2.55845e-31 -6.09399e-31 -1.25166e-30 -1.55205e-30 -1.51088e-30 -1.22717e-30 -8.43847e-31 -4.87216e-31 -2.28512e-31 -7.94922e-32 -1.37607e-32 5.3288e-33 5.9882e-33 2.90218e-33 8.39319e-34 9.0399e-35 -4.41658e-35 -2.63872e-35 -6.17431e-36 -8.52517e-38 4.12181e-37 1.25204e-37 8.203e-39 -5.1691e-39 -1.63566e-39 -8.82002e-41 6.14909e-41 1.63688e-41 9.66662e-43 -2.45168e-43 -4.20288e-45 0 0 0 0 0 0 0 0 0 0 0 0 0 0 0 0 0 0 0 0 0 0 0 0 0 0 0 0 0 0 0 0 0 0 0 0 0 0 0 0 0 0 0 0 0 0 0 0 0 0 0 0 0 0 0 0 0 0 0 0 0 0 0 0 0 0 
0 0 0 0 0 0 0 0 0 0 0 0 0 0 0 0 0 0 0 0 0 0 0 0 0 0 0 0 0 0 0 0 0 0 0 0 0 0 0 0 0 0 0 0 0 0 0 0 0 0 0 0 0 0 0 0 0 0 0 0 0 0 0 0 0 -0 -6.30546e-44 -4.25969e-43 2.61887e-42 2.95194e-41 7.49285e-41 -3.53742e-40 -3.07899e-39 -5.55665e-39 3.64269e-38 2.57117e-37 4.83197e-37 -2.0232e-36 -1.61015e-35 -4.30898e-35 1.49327e-35 5.74786e-34 2.40882e-33 5.1363e-33 1.70478e-33 -3.18013e-32 -1.43123e-31 -3.86426e-31 -7.56079e-31 -1.07281e-30 -8.75948e-31 5.83826e-31 4.17936e-30 1.05906e-29 1.99663e-29 3.17306e-29 4.46383e-29 5.70509e-29 6.7307e-29 7.40427e-29 7.63865e-29 7.40427e-29 6.7307e-29 5.70509e-29 4.46383e-29 3.17306e-29 1.99663e-29 1.05906e-29 4.17936e-30 5.83826e-31 -8.75948e-31 -1.07281e-30 -7.56079e-31 -3.86426e-31 -1.43123e-31 -3.18013e-32 1.70478e-33 5.1363e-33 2.40882e-33 5.74786e-34 1.49327e-35 -4.30898e-35 -1.61015e-35 -2.0232e-36 4.83197e-37 2.57117e-37 3.64269e-38 -5.55665e-39 -3.07899e-39 -3.53742e-40 7.49285e-41 2.95194e-41 2.61887e-42 -4.25969e-43 -6.30546e-44 -0 0 0 0 0 0 0 0 0 0 0 0 0 0 0 0 0 0 0 0 0 0 0 0 0 0 0 0 0 0 0 0 0 0 0 0 0 0 0 0 0 0 0 0 0 0 0 0 0 0 0 0 0 0 0 0 0 0 0 0 0 0 0 0 0 
0 0 0 0 0 0 0 0 0 0 0 0 0 0 0 0 0 0 0 0 0 0 0 0 0 0 0 0 0 0 0 0 0 0 0 0 0 0 0 0 0 0 0 0 0 0 0 0 0 0 0 0 0 0 0 0 0 0 0 0 0 0 0 0 -0 -1.68156e-43 -6.06762e-43 5.85322e-42 4.82873e-41 6.48171e-41 -8.77116e-40 -5.03818e-39 -1.8516e-39 9.50299e-38 4.36548e-37 1.43476e-37 -6.78012e-36 -3.17359e-35 -3.90453e-35 2.61998e-34 1.65642e-33 4.3382e-33 1.80982e-33 -3.33626e-32 -1.61102e-31 -4.37343e-31 -7.52441e-31 -5.05377e-31 1.76377e-30 8.44831e-30 2.2284e-29 4.50477e-29 7.60794e-29 1.11558e-28 1.45262e-28 1.7075e-28 1.84017e-28 1.85261e-28 1.78803e-28 1.71104e-28 1.67799e-28 1.71104e-28 1.78803e-28 1.85261e-28 1.84017e-28 1.7075e-28 1.45262e-28 1.11558e-28 7.60794e-29 4.50477e-29 2.2284e-29 8.44831e-30 1.76377e-30 -5.05377e-31 -7.52441e-31 -4.37343e-31 -1.61102e-31 -3.33626e-32 1.80982e-33 4.3382e-33 1.65642e-33 2.61998e-34 -3.90453e-35 -3.17359e-35 -6.78012e-36 1.43476e-37 4.36548e-37 9.50299e-38 -1.8516e-39 -5.03818e-39 -8.77116e-40 6.48171e-41 4.82873e-41 5.85322e-42 -6.06762e-43 -1.68156e-43 -0 0 0 0 0 0 0 0 0 0 0 0 0 0 0 0 0 0 0 0 0 0 0 0 0 0 0 0 0 0 0 0 0 0 0 0 0 0 0 0 0 0 0 0 0 0 0 0 0 0 0 0 0 0 0 0 0 0 0 0 0 0 0 0 
0 0 0 0 0 0 0 0 0 0 0 0 0 0 0 0 0 0 0 0 0 0 0 0 0 0 0 0 0 0 0 0 0 0 0 0 0 0 0 0 0 0 0 0 0 0 0 0 0 0 0 0 0 0 0 0 0 0 0 0 0 0 0 -0 -2.94273e-43 -5.68927e-43 1.15481e-41 7.21991e-41 2.18182e-42 -1.77638e-39 -7.19582e-39 1.07163e-38 1.97777e-37 6.08714e-37 -1.1908e-36 -1.59364e-35 -4.86036e-35 3.81921e-35 8.74399e-34 3.33707e-33 3.8902e-33 -2.08746e-32 -1.33357e-31 -3.93479e-31 -5.99562e-31 3.42561e-31 5.23552e-30 1.86745e-29 4.49269e-29 8.27979e-29 1.18974e-28 1.23999e-28 5.55505e-29 -1.29327e-28 -4.5665e-28 -9.20112e-28 -1.47521e-27 -2.04599e-27 -2.54196e-27 -2.87903e-27 -2.9984e-27 -2.87903e-27 -2.54196e-27 -2.04599e-27 -1.47521e-27 -9.20112e-28 -4.5665e-28 -1.29327e-28 5.55505e-29 1.23999e-28 1.18974e-28 8.27979e-29 4.49269e-29 1.86745e-29 5.23552e-30 3.42561e-31 -5.99562e-31 -3.93479e-31 -1.33357e-31 -2.08746e-32 3.8902e-33 3.33707e-33 8.74399e-34 3.81921e-35 -4.86036e-35 -1.59364e-35 -1.1908e-36 6.08714e-37 1.97777e-37 1.07163e-38 -7.19582e-39 -1.77638e-39 2.18182e-42 7.21991e-41 1.15481e-41 -5.68927e-43 -2.94273e-43 -0 0 0 0 0 0 0 0 0 0 0 0 0 0 0 0 0 0 0 0 0 0 0 0 0 0 0 0 0 0 0 0 0 0 0 0 0 0 0 0 0 0 0 0 0 0 0 0 0 0 0 0 0 0 0 0 0 0 0 0 0 0 0 
0 0 0 0 0 0 0 0 0 0 0 0 0 0 0 0 0 0 0 0 0 0 0 0 0 0 0 0 0 0 0 0 0 0 0 0 0 0 0 0 0 0 0 0 0 0 0 0 0 0 0 0 0 0 0 0 0 0 0 0 0 0 -1.4013e-44 -4.9606e-43 -1.77965e-43 2.05893e-41 9.89008e-41 -1.54852e-40 -3.16191e-39 -8.73984e-39 3.91533e-38 3.54376e-37 6.3415e-37 -4.41699e-36 -3.04938e-35 -5.18356e-35 2.81022e-34 2.0177e-33 4.78316e-33 -5.79922e-33 -8.43759e-32 -3.09216e-31 -5.07535e-31 6.13077e-31 6.80631e-30 2.42943e-29 5.62632e-29 8.76082e-29 6.16887e-29 -1.3794e-28 -6.80255e-28 -1.7406e-27 -3.42559e-27 -5.70395e-27 -8.38453e-27 -1.11613e-26 -1.37076e-26 -1.5773e-26 -1.72346e-26 -1.80827e-26 -1.83578e-26 -1.80827e-26 -1.72346e-26 -1.5773e-26 -1.37076e-26 -1.11613e-26 -8.38453e-27 -5.70395e-27 -3.42559e-27 -1.7406e-27 -6.80255e-28 -1.3794e-28 6.16887e-29 8.76082e-29 5.62632e-29 2.42943e-29 6.80631e-30 6.13077e-31 -5.07535e-31 -3.09216e-31 -8.43759e-32 -5.79922e-33 4.78316e-33 2.0177e-33 2.81022e-34 -5.18356e-35 -3.04938e-35 -4.41699e-36 6.3415e-37 3.54376e-37 3.91533e-38 -8.73984e-39 -3.16191e-39 -1.54852e-40 9.89008e-41 2.05893e-41 -1.77965e-43 -4.9606e-43 -1.4013e-44 0 0 0 0 0 0 0 0 0 0 0 0 0 0 0 0 0 0 0 0 0 0 0 0 0 0 0 0 0 0 0 0 0 0 0 0 0 0 0 0 0 0 0 0 0 0 0 0 0 0 0 0 0 0 0 0 0 0 0 0 0 
0 0 0 0 0 0 0 0 0 0 0 0 0 0 0 0 0 0 0 0 0 0 0 0 0 0 0 0 0 0 0 0 0 0 0 0 0 0 0 0 0 0 0 0 0 0 0 0 0 0 0 0 0 0 0 0 0 0 0 0 -0 -6.30584e-44 -7.86128e-43 7.6651e-43 3.40544e-41 1.23267e-40 -4.61974e-40 -5.10036e-39 -8.15095e-39 9.2457e-38 5.61635e-37 2.48496e-37 -1.06866e-35 -4.93628e-35 -9.58328e-36 8.18406e-34 3.66747e-33 3.42415e-33 -3.69596e-32 -2.07242e-31 -4.68236e-31 2.23001e-31 5.70133e-30 2.29936e-29 5.33386e-29 6.15986e-29 -7.85566e-29 -6.33602e-28 -1.98339e-27 -4.44873e-27 -7.98167e-27 -1.18569e-26 -1.45876e-26 -1.42335e-26 -9.07349e-27 1.60584e-27 1.69638e-26 3.4576e-26 5.09789e-26 6.26079e-26 6.681e-26 6.26079e-26 5.09789e-26 3.4576e-26 1.69638e-26 1.60584e-27 -9.07349e-27 -1.42335e-26 -1.45876e-26 -1.18569e-26 -7.98167e-27 -4.44873e-27 -1.98339e-27 -6.33602e-28 -7.85566e-29 6.15986e-29 5.33386e-29 2.29936e-29 5.70133e-30 2.23001e-31 -4.68236e-31 -2.07242e-31 -3.69596e-32 3.42415e-33 3.66747e-33 8.18406e-34 -9.58328e-36 -4.93628e-35 -1.06866e-35 2.48496e-37 5.61635e-37 9.2457e-38 -8.15095e-39 -5.10036e-39 -4.61974e-40 1.23267e-40 3.40544e-41 7.6651e-43 -7.86128e-43 -6.30584e-44 -0 0 0 0 0 0 0 0 0 0 0 0 0 0 0 0 0 0 0 0 0 0 0 0 0 0 0 0 0 0 0 0 0 0 0 0 0 0 0 0 0 0 0 0 0 0 0 0 0 0 0 0 0 0 0 0 0 0 0 0 
0 0 0 0 0 0 0 0 0 0 0 0 0 0 0 0 0 0 0 0 0 0 0 0 0 0 0 0 0 0 0 0 0 0 0 0 0 0 0 0 0 0 0 0 0 0 0 0 0 0 0 0 0 0 0 0 0 0 0 -0 -1.28919e-43 -1.11824e-42 2.51673e-42 5.20751e-41 1.36147e-40 -9.84423e-40 -7.56325e-39 -3.04611e-39 1.80588e-37 7.91625e-37 -9.68111e-37 -2.11814e-35 -6.71634e-35 1.32503e-34 1.78564e-33 5.30246e-33 -5.99543e-33 -1.05501e-31 -3.76114e-31 -2.86811e-31 3.21446e-30 1.73397e-29 4.47016e-29 4.14614e-29 -1.74006e-28 -1.01253e-27 -3.02601e-27 -6.37346e-27 -9.72854e-27 -8.98594e-27 3.3557e-27 3.71934e-26 1.01953e-25 2.0275e-25 3.37296e-25 4.9511e-25 6.5949e-25 8.11325e-25 9.33052e-25 1.01139e-24 1.03837e-24 1.01139e-24 9.33052e-25 8.11325e-25 6.5949e-25 4.9511e-25 3.37296e-25 2.0275e-25 1.01953e-25 3.71934e-26 3.3557e-27 -8.98594e-27 -9.72854e-27 -6.37346e-27 -3.02601e-27 -1.01253e-27 -1.74006e-28 4.14614e-29 4.47016e-29 1.73397e-29 3.21446e-30 -2.86811e-31 -3.76114e-31 -1.05501e-31 -5.99543e-33 5.30246e-33 1.78564e-33 1.32503e-34 -6.71634e-35 -2.11814e-35 -9.68111e-37 7.91625e-37 1.80588e-37 -3.04611e-39 -7.56325e-39 -9.84423e-40 1.36147e-40 5.20751e-41 2.51673e-42 -1.11824e-42 -1.28919e-43 -0 0 0 0 0 0 0 0 0 0 0 0 0 0 0 0 0 0 0 0 0 0 0 0 0 0 0 0 0 0 0 0 0 0 0 0 0 0 0 0 0 0 0 0 0 0 0 0 0 0 0 0 0 0 0 0 0 0 0 
0 0 0 0 0 0 0 0 0 0 0 0 0 0 0 0 0 0 0 0 0 0 0 0 0 0 0 0 0 0 0 0 0 0 0 0 0 0 0 0 0 0 0 0 0 0 0 0 0 0 0 0 0 0 0 0 0 0 -0 -2.11596e-43 -1.41811e-42 5.47908e-42 7.54795e-41 1.2469e-40 -1.79123e-39 -1.03757e-38 9.87182e-39 3.12605e-37 9.7869e-37 -3.59686e-36 -3.66894e-35 -7.16488e-35 4.52306e-34 3.25419e-33 5.48909e-33 -3.18971e-32 -2.23648e-31 -4.93989e-31 9.2492e-31 1.03374e-29 3.46614e-29 4.20546e-29 -1.51892e-28 -1.02773e-27 -3.21605e-27 -6.38113e-27 -6.52499e-27 7.74852e-27 5.74302e-26 1.69928e-25 3.68368e-25 6.56104e-25 1.00437e-24 1.35223e-24 1.62303e-24 1.75263e-24 1.71737e-24 1.54788e-24 1.32108e-24 1.13244e-24 1.05964e-24 1.13244e-24 1.32108e-24 1.54788e-24 1.71737e-24 1.75263e-24 1.62303e-24 1.35223e-24 1.00437e-24 6.56104e-25 3.68368e-25 1.69928e-25 5.74302e-26 7.74852e-27 -6.52499e-27 -6.38113e-27 -3.21605e-27 -1.02773e-27 -1.51892e-28 4.20546e-29 3.46614e-29 1.03374e-29 9.2492e-31 -4.93989e-31 -2.23648e-31 -3.18971e-32 5.48909e-33 3.25419e-33 4.52306e-34 -7.16488e-35 -3.66894e-35 -3.59686e-36 9.7869e-37 3.12605e-37 9.87182e-39 -1.03757e-38 -1.79123e-39 1.2469e-40 7.54795e-41 5.47908e-42 -1.41811e-42 -2.11596e-43 -0 0 0 0 0 0 0 0 0 0 0 0 0 0 0 0 0 0 0 0 0 0 0 0 0 0 0 0 0 0 0 0 0 0 0 0 0 0 0 0 0 0 0 0 0 0 0 0 0 0 0 0 0 0 0 0 0 0 
0 0 0 0 0 0 0 0 0 0 0 0 0 0 0 0 0 0 0 0 0 0 0 0 0 0 0 0 0 0 0 0 0 0 0 0 0 0 0 0 0 0 0 0 0 0 0 0 0 0 0 0 0 0 0 0 0 -0 -3.57331e-43 -1.63251e-42 9.9324e-42 1.03539e-40 7.26825e-41 -2.94501e-39 -1.31705e-38 3.46922e-38 4.94038e-37 1.0083e-36 -8.34509e-36 -5.69815e-35 -4.13267e-35 1.04416e-33 5.11729e-33 1.44575e-33 -8.51737e-32 -3.84988e-31 -3.1385e-31 4.26129e-30 2.27742e-29 4.62162e-29 -5.96158e-29 -7.49896e-28 -2.72146e-27 -5.39899e-27 -2.35789e-27 2.61145e-26 1.1753e-25 3.16447e-25 6.36787e-25 1.00046e-24 1.18007e-24 7.89733e-25 -6.42536e-25 -3.52578e-24 -8.03082e-24 -1.39626e-23 -2.07384e-23 -2.74855e-23 -3.32235e-23 -3.70718e-23 -3.8426e-23 -3.70718e-23 -3.32235e-23 -2.74855e-23 -2.07384e-23 -1.39626e-23 -8.03082e-24 -3.52578e-24 -6.42536e-25 7.89733e-25 1.18007e-24 1.00046e-24 6.36787e-25 3.16447e-25 1.1753e-25 2.61145e-26 -2.35789e-27 -5.39899e-27 -2.72146e-27 -7.49896e-28 -5.96158e-29 4.62162e-29 2.27742e-29 4.26129e-30 -3.1385e-31 -3.84988e-31 -8.51737e-32 1.44575e-33 5.11729e-33 1.04416e-33 -4.13267e-35 -5.69815e-35 -8.34509e-36 1.0083e-36 4.94038e-37 3.46922e-38 -1.31705e-38 -2.94501e-39 7.26825e-41 1.03539e-40 9.9324e-42 -1.63251e-42 -3.57331e-43 -0 0 0 0 0 0 0 0 0 0 0 0 0 0 0 0 0 0 0 0 0 0 0 0 0 0 0 0 0 0 0 0 0 0 0 0 0 0 0 0 0 0 0 0 0 0 0 0 0 0 0 0 0 0 0 0 0 
0 0 0 0 0 0 0 0 0 0 0 0 0 0 0 0 0 0 0 0 0 0 0 0 0 0 0 0 0 0 0 0 0 0 0 0 0 0 0 0 0 0 0 0 0 0 0 0 0 0 0 0 0 0 0 0 -1.4013e-45 -5.35296e-43 -1.93099e-42 1.6164e-41 1.35398e-40 -3.84124e-41 -4.49102e-39 -1.53665e-38 7.59668e-38 7.23883e-37 7.11309e-37 -1.59625e-35 -8.00777e-35 5.58699e-35 2.00109e-33 6.94392e-33 -1.12374e-32 -1.76521e-31 -5.41927e-31 6.18883e-31 1.10047e-29 3.85312e-29 2.04562e-29 -3.85993e-28 -1.92605e-27 -4.46371e-27 -1.48315e-27 3.0988e-26 1.42069e-25 3.81569e-25 7.02417e-25 7.76292e-25 -2.11371e-25 -3.63256e-24 -1.11915e-23 -2.43695e-23 -4.37215e-23 -6.83691e-23 -9.60051e-23 -1.23488e-22 -1.47787e-22 -1.66838e-22 -1.79898e-22 -1.87275e-22 -1.89628e-22 -1.87275e-22 -1.79898e-22 -1.66838e-22 -1.47787e-22 -1.23488e-22 -9.60051e-23 -6.83691e-23 -4.37215e-23 -2.43695e-23 -1.11915e-23 -3.63256e-24 -2.11371e-25 7.76292e-25 7.02417e-25 3.81569e-25 1.42069e-25 3.0988e-26 -1.48315e-27 -4.46371e-27 -1.92605e-27 -3.85993e-28 2.04562e-29 3.85312e-29 1.10047e-29 6.18883e-31 -5.41927e-31 -1.76521e-31 -1.12374e-32 6.94392e-33 2.00109e-33 5.58699e-35 -8.00777e-35 -1.59625e-35 7.11309e-37 7.23883e-37 7.59668e-38 -1.53665e-38 -4.49102e-39 -3.84124e-41 1.35398e-40 1.6164e-41 -1.93099e-42 -5.35296e-43 -1.4013e-45 0 0 0 0 0 0 0 0 0 0 0 0 0 0 0 0 0 0 0 0 0 0 0 0 0 0 0 0 0 0 0 0 0 0 0 0 0 0 0 0 0 0 0 0 0 0 0 0 0 0 0 0 0 0 0 
0 0 0 0 0 0 0 0 0 0 0 0 0 0 0 0 0 0 0 0 0 0 0 0 0 0 0 0 0 0 0 0 0 0 0 0 0 0 0 0 0 0 0 0 0 0 0 0 0 0 0 0 0 0 0 -8.40779e-45 -7.32879e-43 -2.02207e-42 2.45059e-41 1.69395e-40 -2.27924e-40 -6.44619e-39 -1.61801e-38 1.38198e-37 9.91864e-37 -1.32722e-37 -2.71118e-35 -1.01565e-34 2.61879e-34 3.38566e-33 7.82928e-33 -3.85128e-32 -3.11292e-31 -5.78648e-31 2.98025e-30 2.20178e-29 4.86768e-29 -1.02214e-28 -1.0828e-27 -3.48319e-27 -3.17739e-27 2.153e-26 1.23157e-25 3.534e-25 5.93477e-25 1.71197e-25 -2.62883e-24 -1.07349e-23 -2.7515e-23 -5.47229e-23 -8.96712e-23 -1.23083e-22 -1.39379e-22 -1.20365e-22 -5.16022e-23 7.08441e-23 2.36208e-22 4.19479e-22 5.86779e-22 7.04043e-22 7.462e-22 7.04043e-22 5.86779e-22 4.19479e-22 2.36208e-22 7.08441e-23 -5.16022e-23 -1.20365e-22 -1.39379e-22 -1.23083e-22 -8.96712e-23 -5.47229e-23 -2.7515e-23 -1.07349e-23 -2.62883e-24 1.71197e-25 5.93477e-25 3.534e-25 1.23157e-25 2.153e-26 -3.17739e-27 -3.48319e-27 -1.0828e-27 -1.02214e-28 4.86768e-29 2.20178e-29 2.98025e-30 -5.78648e-31 -3.11292e-31 -3.85128e-32 7.82928e-33 3.38566e-33 2.61879e-34 -1.01565e-34 -2.71118e-35 -1.32722e-37 9.91864e-37 1.38198e-37 -1.61801e-38 -6.44619e-39 -2.27924e-40 1.69395e-40 2.45059e-41 -2.02207e-42 -7.32879e-43 -8.40779e-45 0 0 0 0 0 0 0 0 0 0 0 0 0 0 0 0 0 0 0 0 0 0 0 0 0 0 0 0 0 0 0 0 0 0 0 0 0 0 0 0 0 0 0 0 0 0 0 0 0 0 0 0 0 0 