<?xml version="1.0"?>
<VTKFile type="ImageData" version="0.1" byte_order="LittleEndian">
<ImageData WholeExtent="0 199 0 199 0 0" Origin="0 0 0" Spacing="15 15 0">
<Piece Extent="0 199 0 199 0 0">
<PointData Scalars="Amplitude">
<DataArray type="Float32" Name="Amplitude" format="ascii">
0 0 0 0 0 0 0 0 0 0 0 0 0 0 0 0 0 0 0 0 0 0 0 0 0 0 0 0 0 0 0 0 0 0 0 0 0 0 0 0 0 0 0 0 0 0 0 0 0 0 0 0 0 0 0 0 0 0 0 0 0 0 0 0 0 0 0 0 0 0 0 0 0 0 0 0 0 0 0 0 0 0 0 0 0 0 0 0 0 0 0 0 0 0 0 0 0 0 0 0 0 0 0 0 0 0 0 0 0 0 0 0 0 0 0 0 0 0 0 0 0 0 0 0 0 0 0 0 0 0 0 0 0 0 0 0 0 0 0 0 0 0 0 0 0 0 0 0 0 0 0 0 0 0 0 0 0 0 0 0 0 0 0 0 0 0 0 0 0 0 0 0 0 0 0 0 0 0 0 0 0 0 0 0 0 0 0 0 0 0 0 0 0 0 0 0 0 0 0 0 
0 0 0 0 0 0 0 0 0 0 0 0 0 0 0 0 0 0 0 0 0 0 0 0 0 0 0 0 0 0 0 0 0 0 0 0 0 0 0 0 0 0 0 0 0 0 0 0 0 0 0 0 0 0 0 0 0 0 0 0 0 0 0 0 0 0 0 0 0 0 0 0 0 0 0 0 0 0 0 0 0 0 0 0 0 0 0 0 0 0 0 0 0 0 0 0 0 0 0 0 0 0 0 0 0 0 0 0 0 0 0 0 0 0 0 0 0 0 0 0 0 0 0 0 0 0 0 0 0 0 0 0 0 0 0 0 0 0 0 0 0 0 0 0 0 0 0 0 0 0 0 0 0 0 0 0 0 0 0 0 0 0 0 0 0 0 0 0 0 0 0 0 0 0 0 0 0 0 0 0 0 0 0 0 0 0 0 0 0 0 0 0 0 0 0 0 0 0 0 0 
0 0 0 0 0 0 0 0 0 0 0 0 0 0 0 0 0 0 0 0 0 0 0 0 0 0 0 0 0 0 0 0 0 0 0 0 0 0 0 0 0 0 0 0 0 0 0 -0 -2.07646e-43 -8.18368e-43 7.08438e-43 1.71694e-41 5.50885e-41 -8.63141e-41 -1.28969e-39 -3.77837e-39 5.07859e-39 7.80944e-38 2.46595e-37 -7.06226e-38 -3.57857e-36 -1.40139e-35 -1.52264e-35 9.79439e-35 5.79843e-34 1.42736e-33 3.09764e-34 -1.20075e-32 -5.33945e-32 -1.2517e-31 -1.08874e-31 4.57776e-31 2.6176e-30 7.7121e-30 1.53754e-29 1.81225e-29 -8.3817e-30 -1.16938e-28 -3.93332e-28 -9.36558e-28 -1.79234e-27 -2.82236e-27 -3.51227e-27 -2.75829e-27 1.28678e-27 1.12024e-26 3.00337e-26 6.07458e-26 1.0548e-25 1.64801e-25 2.3718e-25 3.18933e-25 4.04691e-25 4.88343e-25 5.64196e-25 6.28014e-25 6.7766e-25 7.13116e-25 7.35957e-25 7.48404e-25 7.52314e-25 7.48404e-25 7.35957e-25 7.13116e-25 6.7766e-25 6.28014e-25 5.64196e-25 4.88343e-25 4.04691e-25 3.18933e-25 2.3718e-25 1.64801e-25 1.0548e-25 6.07458e-26 3.00337e-26 1.12024e-26 1.28678e-27 -2.75829e-27 -3.51227e-27 -2.82236e-27 -1.79234e-27 -9.36558e-28 -3.93332e-28 -1.16938e-28 -8.3817e-30 1.81225e-29 1.53754e-29 7.7121e-30 2.6176e-30 4.57776e-31 -1.08874e-31 -1.2517e-31 -5.33945e-32 -1.20075e-32 3.09764e-34 1.42736e-33 5.79843e-34 9.79439e-35 -1.52264e-35 -1.40139e-35 -3.57857e-36 -7.06226e-38 2.46595e-37 7.80944e-38 5.07859e-39 -3.77837e-39 -1.28969e-39 -8.63141e-41 5.50885e-41 1.71694e-41 7.08438e-43 -8.18368e-43 -2.07646e-43 -0 0 0 0 0 0 0 0 0 0 0 0 0 0 0 0 0 0 0 0 0 0 0 0 0 0 0 0 0 0 0 0 0 0 0 0 0 0 0 0 0 0 0 0 0 0 0 
0 0 0 0 0 0 0 0 0 0 0 0 0 0 0 0 0 0 0 0 0 0 0 0 0 0 0 0 0 0 0 0 0 0 0 0 0 0 0 0 0 0 0 0 0 0 -2.65696e-44 -5.36833e-43 -2.45407e-42 2.9203e-43 4.83604e-41 1.82697e-40 -1.60043e-40 -3.83358e-39 -1.25985e-38 1.15103e-38 2.42443e-37 8.13303e-37 -1.42918e-37 -1.17148e-35 -4.64965e-35 -4.66173e-35 3.59092e-34 2.02883e-33 4.64037e-33 -1.21676e-33 -4.99533e-32 -1.98842e-31 -4.04333e-31 -8.10444e-32 2.73187e-30 1.18327e-29 3.01227e-29 4.80554e-29 1.70512e-29 -1.90808e-28 -8.13235e-28 -2.15697e-27 -4.38442e-27 -7.01588e-27 -8.0971e-27 -3.14553e-27 1.57641e-26 6.0176e-26 1.44018e-25 2.80527e-25 4.77518e-25 7.32012e-25 1.02597e-24 1.32507e-24 1.58199e-24 1.74433e-24 1.76578e-24 1.61799e-24 1.29974e-24 8.40932e-25 2.9989e-25 -2.45749e-25 -7.12588e-25 -1.02671e-24 -1.13742e-24 -1.02671e-24 -7.12588e-25 -2.45749e-25 2.9989e-25 8.40932e-25 1.29974e-24 1.61799e-24 1.76578e-24 1.74433e-24 1.58199e-24 1.32507e-24 1.02597e-24 7.32012e-25 4.77518e-25 2.80527e-25 1.44018e-25 6.0176e-26 1.57641e-26 -3.14553e-27 -8.0971e-27 -7.01588e-27 -4.38442e-27 -2.15697e-27 -8.13235e-28 -1.90808e-28 1.70512e-29 4.80554e-29 3.01227e-29 1.18327e-29 2.73187e-30 -8.10444e-32 -4.04333e-31 -1.98842e-31 -4.99533e-32 -1.21676e-33 4.64037e-33 2.02883e-33 3.59092e-34 -4.66173e-35 -4.64965e-35 -1.17148e-35 -1.42918e-37 8.13303e-37 2.42443e-37 1.15103e-38 -1.25985e-38 -3.83358e-39 -1.60043e-40 1.82697e-40 4.83604e-41 2.9203e-43 -2.45407e-42 -5.36833e-43 -2.65696e-44 0 0 0 0 0 0 0 0 0 0 0 0 0 0 0 0 0 0 0 0 0 0 0 0 0 0 0 0 0 0 0 0 0 0 0 0 0 0 0 0 0 0 0 0 0 
0 0 0 0 0 0 0 0 0 0 0 0 0 0 0 0 0 0 0 0 0 0 0 0 0 0 0 0 0 0 0 0 0 0 0 0 0 0 0 0 0 0 0 0 0 -0 -2.66059e-43 -2.96895e-42 -8.06909e-42 2.64667e-41 2.57362e-40 5.07387e-40 -2.63608e-39 -1.9192e-38 -3.2373e-38 1.77694e-37 1.2123e-36 2.28738e-36 -7.80385e-36 -6.28185e-35 -1.57573e-34 1.22744e-34 2.35803e-33 8.44283e-33 1.02269e-32 -4.21355e-32 -2.73632e-31 -7.65763e-31 -8.78829e-31 2.4428e-30 1.66558e-29 5.11808e-29 9.87859e-29 8.38261e-29 -2.29426e-28 -1.32982e-27 -3.92296e-27 -8.51567e-27 -1.43e-26 -1.71122e-26 -6.62886e-27 3.63486e-26 1.40867e-25 3.42917e-25 6.76889e-25 1.16123e-24 1.78076e-24 2.47083e-24 3.11005e-24 3.52754e-24 3.52715e-24 2.92553e-24 1.59651e-24 -4.89727e-25 -3.24301e-24 -6.45246e-24 -9.80957e-24 -1.29512e-23 -1.55139e-23 -1.71895e-23 -1.77721e-23 -1.71895e-23 -1.55139e-23 -1.29512e-23 -9.80957e-24 -6.45246e-24 -3.24301e-24 -4.89727e-25 1.59651e-24 2.92553e-24 3.52715e-24 3.52754e-24 3.11005e-24 2.47083e-24 1.78076e-24 1.16123e-24 6.76889e-25 3.42917e-25 1.40867e-25 3.63486e-26 -6.62886e-27 -1.71122e-26 -1.43e-26 -8.51567e-27 -3.92296e-27 -1.32982e-27 -2.29426e-28 8.38261e-29 9.87859e-29 5.11808e-29 1.66558e-29 2.4428e-30 -8.78829e-31 -7.65763e-31 -2.73632e-31 -4.21355e-32 1.02269e-32 8.44283e-33 2.35803e-33 1.22744e-34 -1.57573e-34 -6.28185e-35 -7.80385e-36 2.28738e-36 1.2123e-36 1.77694e-37 -3.2373e-38 -1.9192e-38 -2.63608e-39 5.07387e-40 2.57362e-40 2.64667e-41 -8.06909e-42 -2.96895e-42 -2.66059e-43 -0 0 0 0 0 0 0 0 0 0 0 0 0 0 0 0 0 0 0 0 0 0 0 0 0 0 0 0 0 0 0 0 0 0 0 0 0 0 0 0 0 0 0 0 0 
0 0 0 0 0 0 0 0 0 0 0 0 0 0 0 0 0 0 0 0 0 0 0 0 0 0 0 0 0 0 0 0 0 0 0 0 0 0 0 0 0 0 0 0 -0 -6.85265e-43 -5.67635e-42 -1.02475e-41 7.507e-41 4.8913e-40 4.52149e-40 -7.27779e-39 -3.65806e-38 -1.95668e-38 5.25493e-37 2.40969e-36 1.69456e-36 -2.82871e-35 -1.38683e-34 -1.89007e-34 9.93404e-34 6.40049e-33 1.49969e-32 -8.26248e-33 -1.9156e-31 -7.17942e-31 -1.2004e-30 1.35639e-30 1.56877e-29 5.44547e-29 1.09007e-28 7.02753e-29 -4.178e-28 -2.08941e-27 -5.87136e-27 -1.1779e-26 -1.61171e-26 -6.5518e-27 4.4075e-26 1.8191e-25 4.68032e-25 9.58125e-25 1.65936e-24 2.46467e-24 3.07632e-24 2.94362e-24 1.24738e-24 -3.03991e-24 -1.10082e-23 -2.35963e-23 -4.13579e-23 -6.42701e-23 -9.16409e-23 -1.22147e-22 -1.53993e-22 -1.85151e-22 -2.13615e-22 -2.37609e-22 -2.55727e-22 -2.66981e-22 -2.70794e-22 -2.66981e-22 -2.55727e-22 -2.37609e-22 -2.13615e-22 -1.85151e-22 -1.53993e-22 -1.22147e-22 -9.16409e-23 -6.42701e-23 -4.13579e-23 -2.35963e-23 -1.10082e-23 -3.03991e-24 1.24738e-24 2.94362e-24 3.07632e-24 2.46467e-24 1.65936e-24 9.58125e-25 4.68032e-25 1.8191e-25 4.4075e-26 -6.5518e-27 -1.61171e-26 -1.1779e-26 -5.87136e-27 -2.08941e-27 -4.178e-28 7.02753e-29 1.09007e-28 5.44547e-29 1.56877e-29 1.35639e-30 -1.2004e-30 -7.17942e-31 -1.9156e-31 -8.26248e-33 1.49969e-32 6.40049e-33 9.93404e-34 -1.89007e-34 -1.38683e-34 -2.82871e-35 1.69456e-36 2.40969e-36 5.25493e-37 -1.95668e-38 -3.65806e-38 -7.27779e-39 4.52149e-40 4.8913e-40 7.507e-41 -1.02475e-41 -5.67635e-42 -6.85265e-43 -0 0 0 0 0 0 0 0 0 0 0 0 0 0 0 0 0 0 0 0 0 0 0 0 0 0 0 0 0 0 0 0 0 0 0 0 0 0 0 0 0 0 0 0 
0 0 0 0 0 0 0 0 0 0 0 0 0 0 0 0 0 0 0 0 0 0 0 0 0 0 0 0 0 0 0 0 0 0 0 0 0 0 0 0 0 0 0 -2.05654e-44 -1.52184e-42 -1.01689e-41 -9.37096e-42 1.74787e-40 8.54629e-40 -1.58126e-40 -1.6841e-38 -6.26647e-38 5.15401e-38 1.26745e-36 4.18942e-36 -3.15181e-36 -7.57443e-35 -2.60662e-34 -1.26692e-35 3.39336e-33 1.40941e-32 1.72789e-32 -9.00675e-32 -5.62711e-31 -1.41196e-30 -3.71012e-31 1.15587e-29 5.14929e-29 1.18977e-28 9.37074e-29 -4.79787e-28 -2.59732e-27 -7.43509e-27 -1.42008e-26 -1.45464e-26 1.71838e-26 1.34872e-25 4.22398e-25 9.66551e-25 1.775e-24 2.6184e-24 2.8009e-24 9.0894e-25 -5.35592e-24 -1.91204e-23 -4.39351e-23 -8.2992e-23 -1.38079e-22 -2.08551e-22 -2.90683e-22 -3.7773e-22 -4.60849e-22 -5.30757e-22 -5.7976e-22 -6.03586e-22 -6.02535e-22 -5.8156e-22 -5.49255e-22 -5.15944e-22 -4.91335e-22 -4.82302e-22 -4.91335e-22 -5.15944e-22 -5.49255e-22 -5.8156e-22 -6.02535e-22 -6.03586e-22 -5.7976e-22 -5.30757e-22 -4.60849e-22 -3.7773e-22 -2.90683e-22 -2.08551e-22 -1.38079e-22 -8.2992e-23 -4.39351e-23 -1.91204e-23 -5.35592e-24 9.0894e-25 2.8009e-24 2.6184e-24 1.775e-24 9.66551e-25 4.22398e-25 1.34872e-25 1.71838e-26 -1.45464e-26 -1.42008e-26 -7.43509e-27 -2.59732e-27 -4.79787e-28 9.37074e-29 1.18977e-28 5.14929e-29 1.15587e-29 -3.71012e-31 -1.41196e-30 -5.62711e-31 -9.00675e-32 1.72789e-32 1.40941e-32 3.39336e-33 -1.26692e-35 -2.60662e-34 -7.57443e-35 -3.15181e-36 4.18942e-36 1.26745e-36 5.15401e-38 -6.26647e-38 -1.6841e-38 -1.58126e-40 8.54629e-40 1.74787e-40 -9.37096e-42 -1.01689e-41 -1.52184e-42 -2.05654e-44 0 0 0 0 0 0 0 0 0 0 0 0 0 0 0 0 0 0 0 0 0 0 0 0 0 0 0 0 0 0 0 0 0 0 0 0 0 0 0 0 0 0 
0 0 0 0 0 0 0 0 0 0 0 0 0 0 0 0 0 0 0 0 0 0 0 0 0 0 0 0 0 0 0 0 0 0 0 0 0 0 0 -0 0 0 -9.06905e-44 -3.13707e-42 -1.67997e-41 2.61079e-43 3.59644e-40 1.35277e-39 -2.10548e-39 -3.44624e-38 -9.36027e-38 2.60916e-37 2.65787e-36 6.09175e-36 -1.88068e-35 -1.69714e-34 -4.01491e-34 8.01797e-34 8.7476e-33 2.52491e-32 -5.55867e-33 -3.23499e-31 -1.27621e-30 -1.81442e-30 5.50053e-30 4.05371e-29 1.18765e-28 1.44449e-28 -3.6734e-28 -2.62839e-27 -8.17501e-27 -1.56561e-26 -1.17304e-26 4.52279e-26 2.41332e-25 6.97611e-25 1.48374e-24 2.38645e-24 2.48117e-24 -4.6111e-25 -1.05375e-23 -3.38473e-23 -7.76503e-23 -1.48063e-22 -2.46192e-22 -3.63301e-22 -4.76395e-22 -5.46103e-22 -5.18635e-22 -3.32649e-22 6.96237e-23 7.292e-22 1.65825e-21 2.83232e-21 4.18891e-21 5.63302e-21 7.04829e-21 8.31161e-21 9.30847e-21 9.94655e-21 1.01661e-20 9.94655e-21 9.30847e-21 8.31161e-21 7.04829e-21 5.63302e-21 4.18891e-21 2.83232e-21 1.65825e-21 7.292e-22 6.96237e-23 -3.32649e-22 -5.18635e-22 -5.46103e-22 -4.76395e-22 -3.63301e-22 -2.46192e-22 -1.48063e-22 -7.76503e-23 -3.38473e-23 -1.05375e-23 -4.6111e-25 2.48117e-24 2.38645e-24 1.48374e-24 6.97611e-25 2.41332e-25 4.52279e-26 -1.17304e-26 -1.56561e-26 -8.17501e-27 -2.62839e-27 -3.6734e-28 1.44449e-28 1.18765e-28 4.05371e-29 5.50053e-30 -1.81442e-30 -1.27621e-30 -3.23499e-31 -5.55867e-33 2.52491e-32 8.7476e-33 8.01797e-34 -4.01491e-34 -1.69714e-34 -1.88068e-35 6.09175e-36 2.65787e-36 2.60916e-37 -9.36027e-38 -3.44624e-38 -2.10548e-39 1.35277e-39 3.59644e-40 2.61079e-43 -1.67997e-41 -3.13707e-42 -9.06905e-44 0 0 -0 0 0 0 0 0 0 0 0 0 0 0 0 0 0 0 0 0 0 0 0 0 0 0 0 0 0 0 0 0 0 0 0 0 0 0 0 0 0 
0 0 0 0 0 0 0 0 0 0 0 0 0 0 0 0 0 0 0 0 0 0 0 0 0 0 0 0 0 0 0 0 0 0 0 0 0 -0 -0 0 0 -2.50616e-43 -5.85367e-42 -2.59883e-41 2.81241e-41 6.72901e-40 1.92262e-39 -6.65856e-39 -6.38531e-38 -1.16439e-37 7.40319e-37 4.97261e-36 6.66139e-36 -5.65544e-35 -3.31001e-34 -4.51854e-34 3.06685e-33 1.87738e-32 3.47813e-32 -1.00691e-31 -8.425e-31 -2.288e-30 -3.03558e-32 2.424e-29 1.01219e-28 1.89953e-28 -1.24163e-28 -2.14117e-27 -7.90221e-27 -1.65016e-26 -1.17449e-26 6.18203e-26 3.21923e-25 9.19974e-25 1.85317e-24 2.46793e-24 5.55285e-25 -8.8195e-24 -3.4113e-23 -8.64122e-23 -1.75009e-22 -2.9775e-22 -4.2585e-22 -4.8558e-22 -3.4261e-22 2.02787e-22 1.40192e-21 3.52175e-21 6.7907e-21 1.13384e-20 1.71462e-20 2.40252e-20 3.16309e-20 3.95126e-20 4.71852e-20 5.42037e-20 6.02185e-20 6.5002e-20 6.84406e-20 7.05006e-20 7.11854e-20 7.05006e-20 6.84406e-20 6.5002e-20 6.02185e-20 5.42037e-20 4.71852e-20 3.95126e-20 3.16309e-20 2.40252e-20 1.71462e-20 1.13384e-20 6.7907e-21 3.52175e-21 1.40192e-21 2.02787e-22 -3.4261e-22 -4.8558e-22 -4.2585e-22 -2.9775e-22 -1.75009e-22 -8.64122e-23 -3.4113e-23 -8.8195e-24 5.55285e-25 2.46793e-24 1.85317e-24 9.19974e-25 3.21923e-25 6.18203e-26 -1.17449e-26 -1.65016e-26 -7.90221e-27 -2.14117e-27 -1.24163e-28 1.89953e-28 1.01219e-28 2.424e-29 -3.03558e-32 -2.288e-30 -8.425e-31 -1.00691e-31 3.47813e-32 1.87738e-32 3.06685e-33 -4.51854e-34 -3.31001e-34 -5.65544e-35 6.66139e-36 4.97261e-36 7.40319e-37 -1.16439e-37 -6.38531e-38 -6.65856e-39 1.92262e-39 6.72901e-40 2.81241e-41 -2.59883e-41 -5.85367e-42 -2.50616e-43 0 0 -0 -0 0 0 0 0 0 0 0 0 0 0 0 0 0 0 0 0 0 0 0 0 0 0 0 0 0 0 0 0 0 0 0 0 0 0 0 0 
0 0 0 0 0 0 0 0 0 0 0 0 0 0 0 0 0 0 0 0 0 0 0 0 0 0 0 0 0 0 0 0 0 0 0 0 -0 -0 0 1.06242e-43 -6.07095e-43 -1.0184e-41 -3.72619e-41 8.84055e-41 1.1626e-39 2.39285e-39 -1.56849e-38 -1.08466e-37 -1.02378e-37 1.68341e-36 8.3943e-36 2.68966e-36 -1.33329e-34 -5.69785e-34 -1.47156e-34 8.08119e-33 3.45937e-32 2.67491e-32 -3.54069e-31 -1.78745e-30 -3.01355e-30 8.36793e-30 6.79807e-29 1.94175e-28 1.29495e-28 -1.29649e-27 -6.56505e-27 -1.64104e-26 -1.60009e-26 5.64432e-26 3.43977e-25 1.02912e-24 2.02682e-24 2.13339e-24 -2.53858e-24 -2.04254e-23 -6.49798e-23 -1.50186e-22 -2.7597e-22 -3.98731e-22 -3.86572e-22 3.17936e-23 1.30296e-21 4.03815e-21 8.92546e-21 1.65524e-20 2.71607e-20 4.03947e-20 5.51341e-20 6.94959e-20 8.1059e-20 8.72937e-20 8.61108e-20 7.63992e-20 5.8406e-20 3.38534e-20 5.75183e-21 -2.20642e-20 -4.55772e-20 -6.12821e-20 -6.67981e-20 -6.12821e-20 -4.55772e-20 -2.20642e-20 5.75183e-21 3.38534e-20 5.8406e-20 7.63992e-20 8.61108e-20 8.72937e-20 8.1059e-20 6.94959e-20 5.51341e-20 4.03947e-20 2.71607e-20 1.65524e-20 8.92546e-21 4.03815e-21 1.30296e-21 3.17936e-23 -3.86572e-22 -3.98731e-22 -2.7597e-22 -1.50186e-22 -6.49798e-23 -2.04254e-23 -2.53858e-24 2.13339e-24 2.02682e-24 1.02912e-24 3.43977e-25 5.64432e-26 -1.60009e-26 -1.64104e-26 -6.56505e-27 -1.29649e-27 1.29495e-28 1.94175e-28 6.79807e-29 8.36793e-30 -3.01355e-30 -1.78745e-30 -3.54069e-31 2.67491e-32 3.45937e-32 8.08119e-33 -1.47156e-34 -5.69785e-34 -1.33329e-34 2.68966e-36 8.3943e-36 1.68341e-36 -1.02378e-37 -1.08466e-37 -1.56849e-38 2.39285e-39 1.1626e-39 8.84055e-41 -3.72619e-41 -1.0184e-41 -6.07095e-43 1.06242e-43 0 -0 -0 0 0 0 0 0 0 0 0 0 0 0 0 0 0 0 0 0 0 0 0 0 0 0 0 0 0 0 0 0 0 0 0 0 0 0 
0 0 0 0 0 0 0 0 0 0 0 0 0 0 0 0 0 0 0 0 0 0 0 0 0 0 0 0 0 0 0 0 0 0 0 -0 0 3.87059e-44 4.60323e-43 -7.96235e-43 -1.65398e-41 -4.96638e-41 1.99963e-40 1.87256e-39 2.43558e-39 -3.16302e-38 -1.70077e-37 -3.59251e-40 3.33958e-36 1.28189e-35 -1.15595e-35 -2.70857e-34 -8.64158e-34 1.01522e-33 1.75764e-32 5.48513e-32 -3.34825e-32 -8.93427e-31 -3.18495e-30 -1.71197e-30 3.13803e-29 1.48978e-28 2.73173e-28 -4.14165e-28 -4.41661e-27 -1.45406e-26 -2.16318e-26 3.10654e-26 2.98811e-25 1.00587e-24 2.05915e-24 1.84542e-24 -5.09053e-24 -3.06598e-23 -9.25618e-23 -2.02483e-22 -3.31412e-22 -3.41339e-22 1.15008e-22 1.69622e-21 5.40473e-21 1.24416e-20 2.37743e-20 3.93704e-20 5.71877e-20 7.21838e-20 7.57441e-20 5.59361e-20 -1.16499e-21 -1.09156e-19 -2.7841e-19 -5.13301e-19 -8.10258e-19 -1.15721e-18 -1.53453e-18 -1.9173e-18 -2.27824e-18 -2.59085e-18 -2.83203e-18 -2.9841e-18 -3.03604e-18 -2.9841e-18 -2.83203e-18 -2.59085e-18 -2.27824e-18 -1.9173e-18 -1.53453e-18 -1.15721e-18 -8.10258e-19 -5.13301e-19 -2.7841e-19 -1.09156e-19 -1.16499e-21 5.59361e-20 7.57441e-20 7.21838e-20 5.71877e-20 3.93704e-20 2.37743e-20 1.24416e-20 5.40473e-21 1.69622e-21 1.15008e-22 -3.41339e-22 -3.31412e-22 -2.02483e-22 -9.25618e-23 -3.06598e-23 -5.09053e-24 1.84542e-24 2.05915e-24 1.00587e-24 2.98811e-25 3.10654e-26 -2.16318e-26 -1.45406e-26 -4.41661e-27 -4.14165e-28 2.73173e-28 1.48978e-28 3.13803e-29 -1.71197e-30 -3.18495e-30 -8.93427e-31 -3.34825e-32 5.48513e-32 1.75764e-32 1.01522e-33 -8.64158e-34 -2.70857e-34 -1.15595e-35 1.28189e-35 3.33958e-36 -3.59251e-40 -1.70077e-37 -3.16302e-38 2.43558e-39 1.87256e-39 1.99963e-40 -4.96638e-41 -1.65398e-41 -7.96235e-43 4.60323e-43 3.87059e-44 0 -0 0 0 0 0 0 0 0 0 0 0 0 0 0 0 0 0 0 0 0 0 0 0 0 0 0 0 0 0 0 0 0 0 0 0 
0 0 0 0 0 0 0 0 0 0 0 0 0 0 0 0 0 0 0 0 0 0 0 0 0 0 0 0 0 0 0 0 0 0 -0 0 9.13955e-44 7.72707e-43 -1.47479e-42 -2.5275e-41 -6.05994e-41 3.8567e-40 2.83074e-39 1.53597e-39 -5.73243e-38 -2.46932e-37 2.67102e-37 5.98517e-36 1.76024e-35 -4.48815e-35 -4.92091e-34 -1.13023e-33 3.84033e-33 3.33814e-32 7.27702e-32 -2.06681e-31 -1.86825e-30 -4.71815e-30 5.2655e-30 8.04097e-29 2.67106e-28 1.87855e-28 -2.10773e-27 -1.06764e-26 -2.39101e-26 -1.21965e-27 2.03348e-25 8.56912e-25 1.98233e-24 1.9457e-24 -5.58165e-24 -3.5164e-23 -1.07681e-22 -2.28668e-22 -3.24506e-22 -1.16527e-22 1.05657e-21 4.38327e-21 1.14892e-20 2.37959e-20 4.09879e-20 5.84404e-20 6.3916e-20 3.44913e-20 -6.47681e-20 -2.78766e-19 -6.56023e-19 -1.23846e-18 -2.04946e-18 -3.08361e-18 -4.30179e-18 -5.63389e-18 -6.98944e-18 -8.27383e-18 -9.4057e-18 -1.0331e-17 -1.10293e-17 -1.15124e-17 -1.18136e-17 -1.19729e-17 -1.2022e-17 -1.19729e-17 -1.18136e-17 -1.15124e-17 -1.10293e-17 -1.0331e-17 -9.4057e-18 -8.27383e-18 -6.98944e-18 -5.63389e-18 -4.30179e-18 -3.08361e-18 -2.04946e-18 -1.23846e-18 -6.56023e-19 -2.78766e-19 -6.47681e-20 3.44913e-20 6.3916e-20 5.84404e-20 4.09879e-20 2.37959e-20 1.14892e-20 4.38327e-21 1.05657e-21 -1.16527e-22 -3.24506e-22 -2.28668e-22 -1.07681e-22 -3.5164e-23 -5.58165e-24 1.9457e-24 1.98233e-24 8.56912e-25 2.03348e-25 -1.21965e-27 -2.39101e-26 -1.06764e-26 -2.10773e-27 1.87855e-28 2.67106e-28 8.04097e-29 5.2655e-30 -4.71815e-30 -1.86825e-30 -2.06681e-31 7.27702e-32 3.33814e-32 3.84033e-33 -1.13023e-33 -4.92091e-34 -4.48815e-35 1.76024e-35 5.98517e-36 2.67102e-37 -2.46932e-37 -5.73243e-38 1.53597e-39 2.83074e-39 3.8567e-40 -6.05994e-41 -2.5275e-41 -1.47479e-42 7.72707e-43 9.13955e-44 0 -0 0 0 0 0 0 0 0 0 0 0 0 0 0 0 0 0 0 0 0 0 0 0 0 0 0 0 0 0 0 0 0 0 0 
0 0 0 0 0 0 0 0 0 0 0 0 0 0 0 0 0 0 0 0 0 0 0 0 0 0 0 0 0 0 0 0 0 -0 0 1.4564e-43 9.26545e-43 -2.7838e-42 -3.70188e-41 -6.70594e-41 6.68939e-40 4.03506e-39 -1.00226e-39 -9.55933e-38 -3.31901e-37 8.03027e-37 9.86965e-36 2.13055e-35 -1.09059e-34 -8.14459e-34 -1.18975e-33 9.43974e-33 5.67146e-32 7.25797e-32 -5.82616e-31 -3.39294e-30 -5.39638e-30 2.4052e-29 1.6737e-28 3.86421e-28 -3.8459e-28 -5.91718e-27 -2.03803e-26 -2.46537e-26 9.32651e-26 6.13197e-25 1.75435e-24 2.32559e-24 -3.7714e-24 -3.23273e-23 -1.07087e-22 -2.299e-22 -2.85972e-22 1.48988e-22 2.07194e-21 7.19536e-21 1.7503e-20 3.34504e-20 4.99569e-20 4.98307e-20 -4.35895e-21 -1.76825e-19 -5.58314e-19 -1.2533e-18 -2.35114e-18 -3.88332e-18 -5.77628e-18 -7.81552e-18 -9.63828e-18 -1.07666e-17 -1.06821e-17 -8.93e-18 -5.22923e-18 4.3919e-19 7.78781e-18 1.62352e-17 2.49745e-17 3.30835e-17 3.96574e-17 4.39381e-17 4.54235e-17 4.39381e-17 3.96574e-17 3.30835e-17 2.49745e-17 1.62352e-17 7.78781e-18 4.3919e-19 -5.22923e-18 -8.93e-18 -1.06821e-17 -1.07666e-17 -9.63828e-18 -7.81552e-18 -5.77628e-18 -3.88332e-18 -2.35114e-18 -1.2533e-18 -5.58314e-19 -1.76825e-19 -4.35895e-21 4.98307e-20 4.99569e-20 3.34504e-20 1.7503e-20 7.19536e-21 2.07194e-21 1.48988e-22 -2.85972e-22 -2.299e-22 -1.07087e-22 -3.23273e-23 -3.7714e-24 2.32559e-24 1.75435e-24 6.13197e-25 9.32651e-26 -2.46537e-26 -2.03803e-26 -5.91718e-27 -3.8459e-28 3.86421e-28 1.6737e-28 2.4052e-29 -5.39638e-30 -3.39294e-30 -5.82616e-31 7.25797e-32 5.67146e-32 9.43974e-33 -1.18975e-33 -8.14459e-34 -1.09059e-34 2.13055e-35 9.86965e-36 8.03027e-37 -3.31901e-37 -9.55933e-38 -1.00226e-39 4.03506e-39 6.68939e-40 -6.70594e-41 -3.70188e-41 -2.7838e-42 9.26545e-43 1.4564e-43 0 -0 0 0 0 0 0 0 0 0 0 0 0 0 0 0 0 0 0 0 0 0 0 0 0 0 0 0 0 0 0 0 0 0 
0 0 0 0 0 0 0 0 0 0 0 0 0 0 0 0 0 0 0 0 0 0 0 0 0 0 0 0 0 0 0 0 -0 0 1.88923e-43 1.03491e-42 -4.89395e-42 -5.17567e-41 -6.50772e-41 1.07039e-39 5.4436e-39 -6.00147e-39 -1.48714e-37 -4.11274e-37 1.72779e-36 1.51427e-35 2.15274e-35 -2.17881e-34 -1.24061e-33 -7.46254e-34 1.91342e-32 8.71337e-32 2.63575e-32 -1.27333e-30 -5.44807e-30 -3.19713e-30 6.31669e-29 2.97736e-28 4.027e-28 -1.98492e-27 -1.28252e-26 -3.08892e-26 7.21871e-27 3.38969e-25 1.34285e-24 2.5539e-24 -7.57339e-25 -2.36444e-23 -9.24878e-23 -2.13941e-22 -2.58992e-22 2.91275e-22 2.69429e-21 9.05011e-21 2.12769e-20 3.74252e-20 4.35773e-20 7.39177e-22 -1.70306e-19 -5.97133e-19 -1.44104e-18 -2.8411e-18 -4.80476e-18 -7.05184e-18 -8.8467e-18 -8.87948e-18 -5.26657e-18 4.27781e-18 2.20945e-17 5.01141e-17 8.93789e-17 1.39679e-16 1.99408e-16 2.65673e-16 3.34641e-16 4.0202e-16 4.63561e-16 5.15478e-16 5.54729e-16 5.79138e-16 5.87415e-16 5.79138e-16 5.54729e-16 5.15478e-16 4.63561e-16 4.0202e-16 3.34641e-16 2.65673e-16 1.99408e-16 1.39679e-16 8.93789e-17 5.01141e-17 2.20945e-17 4.27781e-18 -5.26657e-18 -8.87948e-18 -8.8467e-18 -7.05184e-18 -4.80476e-18 -2.8411e-18 -1.44104e-18 -5.97133e-19 -1.70306e-19 7.39177e-22 4.35773e-20 3.74252e-20 2.12769e-20 9.05011e-21 2.69429e-21 2.91275e-22 -2.58992e-22 -2.13941e-22 -9.24878e-23 -2.36444e-23 -7.57339e-25 2.5539e-24 1.34285e-24 3.38969e-25 7.21871e-27 -3.08892e-26 -1.28252e-26 -1.98492e-27 4.027e-28 2.97736e-28 6.31669e-29 -3.19713e-30 -5.44807e-30 -1.27333e-30 2.63575e-32 8.71337e-32 1.91342e-32 -7.46254e-34 -1.24061e-33 -2.17881e-34 2.15274e-35 1.51427e-35 1.72779e-36 -4.11274e-37 -1.48714e-37 -6.00147e-39 5.4436e-39 1.07039e-39 -6.50772e-41 -5.17567e-41 -4.89395e-42 1.03491e-42 1.88923e-43 0 -0 0 0 0 0 0 0 0 0 0 0 0 0 0 0 0 0 0 0 0 0 0 0 0 0 0 0 0 0 0 0 0 
0 0 0 0 0 0 0 0 0 0 0 0 0 0 0 0 0 0 0 0 0 0 0 0 0 0 0 0 0 0 -0 -0 0 2.68478e-43 1.07113e-42 -7.8429e-42 -6.92798e-41 -5.00969e-41 1.60359e-39 6.97098e-39 -1.42996e-38 -2.17817e-37 -4.64872e-37 3.16308e-36 2.17786e-35 1.493e-35 -3.85148e-34 -1.74877e-33 6.17098e-34 3.42348e-32 1.21345e-31 -1.07172e-31 -2.39312e-30 -7.7518e-30 5.17738e-30 1.32214e-28 4.59397e-28 1.11016e-28 -5.34191e-27 -2.31515e-26 -3.37095e-26 1.14065e-25 8.22774e-25 2.29235e-24 1.84343e-24 -1.26462e-23 -6.82602e-23 -1.84377e-22 -2.56244e-22 2.37862e-22 2.67156e-21 9.37446e-21 2.20257e-20 3.57729e-20 2.60345e-20 -7.27354e-20 -3.89168e-19 -1.11601e-18 -2.4498e-18 -4.41845e-18 -6.56084e-18 -7.47763e-18 -4.36376e-18 7.2714e-18 3.3446e-17 8.0921e-17 1.55783e-16 2.61651e-16 3.9799e-16 5.59112e-16 7.34343e-16 9.09492e-16 1.06939e-15 1.2009e-15 1.29561e-15 1.35154e-15 1.37325e-15 1.37052e-15 1.35585e-15 1.34124e-15 1.33534e-15 1.34124e-15 1.35585e-15 1.37052e-15 1.37325e-15 1.35154e-15 1.29561e-15 1.2009e-15 1.06939e-15 9.09492e-16 7.34343e-16 5.59112e-16 3.9799e-16 2.61651e-16 1.55783e-16 8.0921e-17 3.3446e-17 7.2714e-18 -4.36376e-18 -7.47763e-18 -6.56084e-18 -4.41845e-18 -2.4498e-18 -1.11601e-18 -3.89168e-19 -7.27354e-20 2.60345e-20 3.57729e-20 2.20257e-20 9.37446e-21 2.67156e-21 2.37862e-22 -2.56244e-22 -1.84377e-22 -6.82602e-23 -1.26462e-23 1.84343e-24 2.29235e-24 8.22774e-25 1.14065e-25 -3.37095e-26 -2.31515e-26 -5.34191e-27 1.11016e-28 4.59397e-28 1.32214e-28 5.17738e-30 -7.7518e-30 -2.39312e-30 -1.07172e-31 1.21345e-31 3.42348e-32 6.17098e-34 -1.74877e-33 -3.85148e-34 1.493e-35 2.17786e-35 3.16308e-36 -4.64872e-37 -2.17817e-37 -1.42996e-38 6.97098e-39 1.60359e-39 -5.00969e-41 -6.92798e-41 -7.8429e-42 1.07113e-42 2.68478e-43 0 -0 -0 0 0 0 0 0 0 0 0 0 0 0 0 0 0 0 0 0 0 0 0 0 0 0 0 0 0 0 0 0 
0 0 0 0 0 0 0 0 0 0 0 0 0 0 0 0 0 0 0 0 0 0 0 0 0 0 0 0 0 -0 -0 0 4.34568e-43 1.37195e-42 -1.14715e-41 -8.88998e-41 -1.84301e-41 2.27052e-39 8.49537e-39 -2.66003e-38 -3.02396e-37 -4.67938e-37 5.21001e-36 2.95215e-35 -2.47605e-36 -6.21911e-34 -2.28576e-33 3.40692e-33 5.57231e-32 1.52244e-31 -3.80404e-31 -4.0254e-30 -9.63523e-30 2.42533e-29 2.39104e-28 6.09252e-28 -8.10624e-28 -1.12149e-26 -3.5473e-26 -1.1615e-26 3.54319e-25 1.58737e-24 2.94124e-24 -3.24324e-24 -4.07238e-23 -1.41688e-22 -2.54504e-22 4.73663e-23 2.07715e-21 8.26455e-21 2.03236e-20 3.16882e-20 9.55487e-21 -1.34384e-19 -5.70937e-19 -1.53448e-18 -3.17302e-18 -5.15298e-18 -5.93407e-18 -1.76817e-18 1.42617e-17 5.25364e-17 1.25721e-16 2.45467e-16 4.16966e-16 6.32324e-16 8.6471e-16 1.06573e-15 1.16812e-15 1.09447e-15 7.71063e-16 1.43885e-16 -8.06852e-16 -2.05733e-15 -3.53816e-15 -5.1405e-15 -6.72893e-15 -8.15848e-15 -9.29301e-15 -1.00219e-14 -1.02731e-14 -1.00219e-14 -9.29301e-15 -8.15848e-15 -6.72893e-15 -5.1405e-15 -3.53816e-15 -2.05733e-15 -8.06852e-16 1.43885e-16 7.71063e-16 1.09447e-15 1.16812e-15 1.06573e-15 8.6471e-16 6.32324e-16 4.16966e-16 2.45467e-16 1.25721e-16 5.25364e-17 1.42617e-17 -1.76817e-18 -5.93407e-18 -5.15298e-18 -3.17302e-18 -1.53448e-18 -5.70937e-19 -1.34384e-19 9.55487e-21 3.16882e-20 2.03236e-20 8.26455e-21 2.07715e-21 4.73663e-23 -2.54504e-22 -1.41688e-22 -4.07238e-23 -3.24324e-24 2.94124e-24 1.58737e-24 3.54319e-25 -1.1615e-26 -3.5473e-26 -1.12149e-26 -8.10624e-28 6.09252e-28 2.39104e-28 2.42533e-29 -9.63523e-30 -4.0254e-30 -3.80404e-31 1.52244e-31 5.57231e-32 3.40692e-33 -2.28576e-33 -6.21911e-34 -2.47605e-36 2.95215e-35 5.21001e-36 -4.67938e-37 -3.02396e-37 -2.66003e-38 8.49537e-39 2.27052e-39 -1.84301e-41 -8.88998e-41 -1.14715e-41 1.37195e-42 4.34568e-43 0 -0 -0 0 0 0 0 0 0 0 0 0 0 0 0 0 0 0 0 0 0 0 0 0 0 0 0 0 0 0 0 
0 0 0 0 0 0 0 0 0 0 0 0 0 0 0 0 0 0 0 0 0 0 0 0 0 0 0 0 -0 -0 4.18334e-45 5.98218e-43 1.64545e-42 -1.56053e-41 -1.09758e-40 3.24739e-41 3.05925e-39 9.875e-39 -4.33088e-38 -4.00065e-37 -3.9477e-37 7.92566e-36 3.78732e-35 -3.47771e-35 -9.33516e-34 -2.76625e-33 8.15346e-33 8.38975e-32 1.68624e-31 -8.50416e-31 -6.18263e-30 -9.97106e-30 5.93077e-29 3.86055e-28 6.61821e-28 -2.7834e-27 -2.00878e-26 -4.53628e-26 6.26191e-26 7.8842e-25 2.53979e-24 2.09036e-24 -1.70602e-23 -9.11409e-23 -2.24731e-22 -1.51266e-22 1.20752e-21 6.21675e-21 1.70686e-20 2.78618e-20 3.70861e-21 -1.55084e-19 -6.43791e-19 -1.70822e-18 -3.37533e-18 -4.74684e-18 -2.69225e-18 9.91811e-18 4.56514e-17 1.21961e-16 2.56339e-16 4.5514e-16 6.95853e-16 9.0582e-16 9.44042e-16 5.94954e-16 -4.17914e-16 -2.39535e-15 -5.60726e-15 -1.02308e-14 -1.62975e-14 -2.36654e-14 -3.20234e-14 -4.09291e-14 -4.98679e-14 -5.83207e-14 -6.58218e-14 -7.19962e-14 -7.65737e-14 -7.93813e-14 -8.03267e-14 -7.93813e-14 -7.65737e-14 -7.19962e-14 -6.58218e-14 -5.83207e-14 -4.98679e-14 -4.09291e-14 -3.20234e-14 -2.36654e-14 -1.62975e-14 -1.02308e-14 -5.60726e-15 -2.39535e-15 -4.17914e-16 5.94954e-16 9.44042e-16 9.0582e-16 6.95853e-16 4.5514e-16 2.56339e-16 1.21961e-16 4.56514e-17 9.91811e-18 -2.69225e-18 -4.74684e-18 -3.37533e-18 -1.70822e-18 -6.43791e-19 -1.55084e-19 3.70861e-21 2.78618e-20 1.70686e-20 6.21675e-21 1.20752e-21 -1.51266e-22 -2.24731e-22 -9.11409e-23 -1.70602e-23 2.09036e-24 2.53979e-24 7.8842e-25 6.26191e-26 -4.53628e-26 -2.00878e-26 -2.7834e-27 6.61821e-28 3.86055e-28 5.93077e-29 -9.97106e-30 -6.18263e-30 -8.50416e-31 1.68624e-31 8.38975e-32 8.15346e-33 -2.76625e-33 -9.33516e-34 -3.47771e-35 3.78732e-35 7.92566e-36 -3.9477e-37 -4.00065e-37 -4.33088e-38 9.875e-39 3.05925e-39 3.24739e-41 -1.09758e-40 -1.56053e-41 1.64545e-42 5.98218e-43 4.18334e-45 -0 -0 0 0 0 0 0 0 0 0 0 0 0 0 0 0 0 0 0 0 0 0 0 0 0 0 0 0 0 
0 0 0 0 0 0 0 0 0 0 0 0 0 0 0 0 0 0 0 0 0 0 0 0 0 0 0 -0 -0 1.39588e-44 7.34235e-43 1.7616e-42 -2.02654e-41 -1.30959e-40 1.02992e-40 3.9436e-39 1.09726e-38 -6.43971e-38 -5.06684e-37 -2.23515e-37 1.13038e-35 4.61387e-35 -8.54194e-35 -1.31728e-33 -3.08007e-33 1.53176e-32 1.18091e-31 1.559e-31 -1.56887e-30 -8.77024e-30 -7.20398e-30 1.15444e-28 5.65327e-28 4.85343e-28 -6.26371e-27 -3.17562e-26 -4.43924e-26 2.24102e-25 1.45082e-24 3.34024e-24 -2.28043e-24 -4.4552e-23 -1.62228e-22 -2.53024e-22 4.04916e-22 3.85941e-21 1.28976e-20 2.44349e-20 8.63571e-21 -1.30979e-19 -5.94362e-19 -1.62486e-18 -3.13541e-18 -3.68609e-18 1.45758e-18 2.28983e-17 7.86714e-17 1.9109e-16 3.73291e-16 6.00099e-16 7.62206e-16 6.11862e-16 -2.79942e-16 -2.52645e-15 -6.86152e-15 -1.39989e-14 -2.44317e-14 -3.82209e-14 -5.48382e-14 -7.31308e-14 -9.14416e-14 -1.0788e-13 -1.20683e-13 -1.28589e-13 -1.31124e-13 -1.2872e-13 -1.2265e-13 -1.14777e-13 -1.07185e-13 -1.01755e-13 -9.97897e-14 -1.01755e-13 -1.07185e-13 -1.14777e-13 -1.2265e-13 -1.2872e-13 -1.31124e-13 -1.28589e-13 -1.20683e-13 -1.0788e-13 -9.14416e-14 -7.31308e-14 -5.48382e-14 -3.82209e-14 -2.44317e-14 -1.39989e-14 -6.86152e-15 -2.52645e-15 -2.79942e-16 6.11862e-16 7.62206e-16 6.00099e-16 3.73291e-16 1.9109e-16 7.86714e-17 2.28983e-17 1.45758e-18 -3.68609e-18 -3.13541e-18 -1.62486e-18 -5.94362e-19 -1.30979e-19 8.63571e-21 2.44349e-20 1.28976e-20 3.85941e-21 4.04916e-22 -2.53024e-22 -1.62228e-22 -4.4552e-23 -2.28043e-24 3.34024e-24 1.45082e-24 2.24102e-25 -4.43924e-26 -3.17562e-26 -6.26371e-27 4.85343e-28 5.65327e-28 1.15444e-28 -7.20398e-30 -8.77024e-30 -1.56887e-30 1.559e-31 1.18091e-31 1.53176e-32 -3.08007e-33 -1.31728e-33 -8.54194e-35 4.61387e-35 1.13038e-35 -2.23515e-37 -5.06684e-37 -6.43971e-38 1.09726e-38 3.9436e-39 1.02992e-40 -1.30959e-40 -2.02654e-41 1.7616e-42 7.34235e-43 1.39588e-44 -0 -0 0 0 0 0 0 0 0 0 0 0 0 0 0 0 0 0 0 0 0 0 0 0 0 0 0 0 