<?xml version="1.0"?>
<VTKFile type="ImageData" version="0.1" byte_order="LittleEndian">
<ImageData WholeExtent="0 199 0 199 0 0" Origin="0 0 0" Spacing="15 15 0">
<Piece Extent="0 199 0 199 0 0">
<PointData Scalars="Amplitude">
<DataArray type="Float32" Name="Amplitude" format="ascii">
0 0 0 0 0 0 0 0 0 0 0 0 0 0 0 0 0 0 0 0 0 0 0 0 0 0 0 0 0 0 0 0 0 0 0 0 0 0 0 0 0 0 0 0 0 0 0 0 0 0 0 0 0 0 0 0 0 0 0 0 0 0 0 0 0 0 0 0 0 0 0 0 0 0 0 0 0 0 0 0 0 0 0 0 0 0 0 0 0 0 0 0 0 0 0 0 0 0 0 0 0 0 0 0 0 0 0 0 0 0 0 0 0 0 0 0 0 0 0 0 0 0 0 0 0 0 0 0 0 0 0 0 0 0 0 0 0 0 0 0 0 0 0 0 0 0 0 0 0 0 0 0 0 0 0 0 0 0 0 0 0 0 0 0 0 0 0 0 0 0 0 0 0 0 0 0 0 0 0 0 0 0 0 0 0 0 0 0 0 0 0 0 0 0 0 0 0 0 0 0 
0 0 0 0 0 0 0 0 0 0 0 0 0 0 0 0 0 0 0 0 0 0 0 0 0 0 0 0 0 0 0 0 0 0 0 0 0 0 0 0 0 0 0 0 0 0 0 0 0 0 0 0 0 0 0 0 0 0 0 0 0 0 0 0 0 0 0 0 0 0 0 0 0 0 0 0 0 0 0 0 0 0 0 0 0 0 0 0 0 0 0 0 0 0 0 0 0 0 0 0 0 0 0 0 0 0 0 0 0 0 0 0 0 0 0 0 0 0 0 0 0 0 0 0 0 0 0 0 0 0 0 0 0 0 0 0 0 0 0 0 0 0 0 0 0 0 0 0 0 0 0 0 0 0 0 0 0 0 0 0 0 0 0 0 0 0 0 0 0 0 0 0 0 0 0 0 0 0 0 0 0 0 0 0 0 0 0 0 0 0 0 0 0 0 0 0 0 0 0 0 
0 0 0 0 0 0 0 0 0 0 0 0 0 0 0 0 0 0 0 0 0 0 0 0 0 0 0 0 0 0 -0 -2.52432e-43 -2.05881e-42 -2.46189e-42 3.45112e-41 1.79369e-40 -5.39023e-41 -3.84087e-39 -1.33983e-38 2.25913e-38 3.34083e-37 8.75567e-37 -2.42342e-36 -2.41059e-35 -5.47002e-35 1.63504e-34 1.47366e-33 3.46002e-33 -6.94285e-33 -7.47804e-32 -2.11021e-31 8.28644e-32 2.88172e-30 1.08382e-29 1.25814e-29 -6.33418e-29 -3.90731e-28 -1.00777e-27 -5.62269e-28 6.62103e-27 3.24855e-26 8.23064e-26 9.31965e-26 -2.16731e-25 -1.55215e-24 -4.96448e-24 -1.05199e-23 -1.2883e-23 8.1702e-24 1.01547e-22 3.5311e-22 8.60634e-22 1.62395e-21 2.28429e-21 1.67173e-21 -2.78177e-21 -1.55177e-20 -4.2731e-20 -9.09974e-20 -1.64048e-19 -2.57516e-19 -3.52287e-19 -4.08048e-19 -3.59408e-19 -1.17033e-19 4.2456e-19 1.37261e-18 2.81722e-18 4.8119e-18 7.3581e-18 1.03979e-17 1.38168e-17 1.74565e-17 2.11348e-17 2.46677e-17 2.78887e-17 3.06636e-17 3.2895e-17 3.45207e-17 3.55064e-17 3.58364e-17 3.55064e-17 3.45207e-17 3.2895e-17 3.06636e-17 2.78887e-17 2.46677e-17 2.11348e-17 1.74565e-17 1.38168e-17 1.03979e-17 7.3581e-18 4.8119e-18 2.81722e-18 1.37261e-18 4.2456e-19 -1.17033e-19 -3.59408e-19 -4.08048e-19 -3.52287e-19 -2.57516e-19 -1.64048e-19 -9.09974e-20 -4.2731e-20 -1.55177e-20 -2.78177e-21 1.67173e-21 2.28429e-21 1.62395e-21 8.60634e-22 3.5311e-22 1.01547e-22 8.1702e-24 -1.2883e-23 -1.05199e-23 -4.96448e-24 -1.55215e-24 -2.16731e-25 9.31965e-26 8.23064e-26 3.24855e-26 6.62103e-27 -5.62269e-28 -1.00777e-27 -3.90731e-28 -6.33418e-29 1.25814e-29 1.08382e-29 2.88172e-30 8.28644e-32 -2.11021e-31 -7.47804e-32 -6.94285e-33 3.46002e-33 1.47366e-33 1.63504e-34 -5.47002e-35 -2.41059e-35 -2.42342e-36 8.75567e-37 3.34083e-37 2.25913e-38 -1.33983e-38 -3.84087e-39 -5.39023e-41 1.79369e-40 3.45112e-41 -2.46189e-42 -2.05881e-42 -2.52432e-43 -0 0 0 0 0 0 0 0 0 0 0 0 0 0 0 0 0 0 0 0 0 0 0 0 0 0 0 0 0 0 
0 0 0 0 0 0 0 0 0 0 0 0 0 0 0 0 0 0 0 0 0 0 0 0 0 0 0 0 1.2691e-44 9.0226e-44 -4.04519e-43 -4.94924e-42 -1.07175e-41 7.01614e-41 4.89054e-40 3.12925e-40 -8.91394e-39 -3.94944e-38 2.48086e-38 8.36792e-37 2.72475e-36 -4.37192e-36 -6.33759e-35 -1.72662e-34 3.415e-34 4.00003e-33 1.06434e-32 -1.53628e-32 -2.08393e-31 -6.28482e-31 1.45253e-31 8.33119e-30 3.21104e-29 3.63898e-29 -2.00575e-28 -1.2054e-27 -2.97709e-27 -8.2111e-28 2.3799e-26 1.06363e-25 2.45401e-25 1.77886e-25 -1.12062e-24 -5.9468e-24 -1.69078e-23 -3.06179e-23 -1.96822e-23 1.01482e-22 5.15087e-22 1.48633e-21 3.16288e-21 4.9666e-21 4.35198e-21 -5.06445e-21 -3.53748e-20 -1.04594e-19 -2.32453e-19 -4.28521e-19 -6.70526e-19 -8.73978e-19 -8.59346e-19 -3.28331e-19 1.13635e-18 4.03531e-18 8.87676e-18 1.6069e-17 2.58026e-17 3.79534e-17 5.20361e-17 6.72295e-17 8.24794e-17 9.66591e-17 1.08758e-16 1.18054e-16 1.2424e-16 1.27456e-16 1.28252e-16 1.27457e-16 1.26004e-16 1.24739e-16 1.24247e-16 1.24739e-16 1.26004e-16 1.27457e-16 1.28252e-16 1.27456e-16 1.2424e-16 1.18054e-16 1.08758e-16 9.66591e-17 8.24794e-17 6.72295e-17 5.20361e-17 3.79534e-17 2.58026e-17 1.6069e-17 8.87676e-18 4.03531e-18 1.13635e-18 -3.28331e-19 -8.59346e-19 -8.73978e-19 -6.70526e-19 -4.28521e-19 -2.32453e-19 -1.04594e-19 -3.53748e-20 -5.06445e-21 4.35198e-21 4.9666e-21 3.16288e-21 1.48633e-21 5.15087e-22 1.01482e-22 -1.96822e-23 -3.06179e-23 -1.69078e-23 -5.9468e-24 -1.12062e-24 1.77886e-25 2.45401e-25 1.06363e-25 2.3799e-26 -8.2111e-28 -2.97709e-27 -1.2054e-27 -2.00575e-28 3.63898e-29 3.21104e-29 8.33119e-30 1.45253e-31 -6.28482e-31 -2.08393e-31 -1.53628e-32 1.06434e-32 4.00003e-33 3.415e-34 -1.72662e-34 -6.33759e-35 -4.37192e-36 2.72475e-36 8.36792e-37 2.48086e-38 -3.94944e-38 -8.91394e-39 3.12925e-40 4.89054e-40 7.01614e-41 -1.07175e-41 -4.94924e-42 -4.04519e-43 9.0226e-44 1.2691e-44 0 0 0 0 0 0 0 0 0 0 0 0 0 0 0 0 0 0 0 0 0 0 0 0 0 0 0 
0 0 0 0 0 0 0 0 0 0 0 0 0 0 0 0 0 0 0 0 0 0 0 0 0 -0 -0 0 1.20068e-43 2.55144e-43 -3.4383e-42 -2.18496e-41 -3.23501e-42 4.71805e-40 1.78909e-39 -3.34166e-39 -4.88286e-38 -1.15238e-37 5.07176e-37 4.05331e-36 6.18155e-36 -4.73018e-35 -2.8561e-34 -3.26436e-34 3.24815e-33 1.76344e-32 2.12816e-32 -1.66404e-31 -9.50253e-31 -1.59573e-30 5.63624e-30 4.20992e-29 1.04505e-28 -4.68959e-29 -1.3143e-27 -4.90837e-27 -7.26234e-27 1.62591e-26 1.32839e-25 4.11741e-25 6.19969e-25 -6.52825e-25 -7.35447e-24 -2.58198e-23 -5.65333e-23 -6.47109e-23 8.47278e-23 7.18922e-22 2.38601e-21 5.56511e-21 9.57719e-21 1.01007e-20 -4.94883e-21 -6.01234e-20 -1.94194e-19 -4.52251e-19 -8.59285e-19 -1.36784e-18 -1.77987e-18 -1.65645e-18 -2.459e-19 3.52802e-18 1.09767e-17 2.34356e-17 4.19461e-17 6.68907e-17 9.76734e-17 1.3255e-16 1.68687e-16 2.02476e-16 2.30079e-16 2.48085e-16 2.54155e-16 2.47523e-16 2.29226e-16 2.02025e-16 1.70029e-16 1.38079e-16 1.11019e-16 9.29474e-17 8.66032e-17 9.29474e-17 1.11019e-16 1.38079e-16 1.70029e-16 2.02025e-16 2.29226e-16 2.47523e-16 2.54155e-16 2.48085e-16 2.30079e-16 2.02476e-16 1.68687e-16 1.3255e-16 9.76734e-17 6.68907e-17 4.19461e-17 2.34356e-17 1.09767e-17 3.52802e-18 -2.459e-19 -1.65645e-18 -1.77987e-18 -1.36784e-18 -8.59285e-19 -4.52251e-19 -1.94194e-19 -6.01234e-20 -4.94883e-21 1.01007e-20 9.57719e-21 5.56511e-21 2.38601e-21 7.18922e-22 8.47278e-23 -6.47109e-23 -5.65333e-23 -2.58198e-23 -7.35447e-24 -6.52825e-25 6.19969e-25 4.11741e-25 1.32839e-25 1.62591e-26 -7.26234e-27 -4.90837e-27 -1.3143e-27 -4.68959e-29 1.04505e-28 4.20992e-29 5.63624e-30 -1.59573e-30 -9.50253e-31 -1.66404e-31 2.12816e-32 1.76344e-32 3.24815e-33 -3.26436e-34 -2.8561e-34 -4.73018e-35 6.18155e-36 4.05331e-36 5.07176e-37 -1.15238e-37 -4.88286e-38 -3.34166e-39 1.78909e-39 4.71805e-40 -3.23501e-42 -2.18496e-41 -3.4383e-42 2.55144e-43 1.20068e-43 0 -0 -0 0 0 0 0 0 0 0 0 0 0 0 0 0 0 0 0 0 0 0 0 0 0 0 0 
0 0 0 0 0 0 0 0 0 0 0 0 0 0 0 0 0 0 0 0 0 0 0 0 -0 -0 1.36779e-45 3.69304e-43 4.7736e-43 -6.28775e-42 -3.43097e-41 2.26821e-41 8.55427e-40 2.59683e-39 -8.86413e-39 -8.65916e-38 -1.40411e-37 1.17791e-36 7.07463e-36 4.85895e-36 -1.08109e-34 -4.95458e-34 -8.59734e-35 7.69098e-33 3.1132e-32 5.13136e-33 -4.33424e-31 -1.77986e-30 -1.1903e-30 1.84256e-29 8.87081e-29 1.35598e-28 -4.7559e-28 -3.43684e-27 -8.9935e-27 -1.941e-27 7.96277e-26 3.4746e-25 7.31556e-25 8.06418e-26 -5.62113e-24 -2.40376e-23 -5.82752e-23 -7.15876e-23 9.75246e-23 8.5959e-22 2.89771e-21 6.66017e-21 1.04752e-20 6.22303e-21 -2.77004e-20 -1.33345e-19 -3.71101e-19 -7.91146e-19 -1.35517e-18 -1.79005e-18 -1.38e-18 1.24841e-18 8.23495e-18 2.23304e-17 4.63273e-17 8.20126e-17 1.28741e-16 1.81925e-16 2.31879e-16 2.63533e-16 2.5734e-16 1.91496e-16 4.51904e-17 -1.97679e-16 -5.45093e-16 -9.94497e-16 -1.53191e-15 -2.13269e-15 -2.76389e-15 -3.38744e-15 -3.96393e-15 -4.4562e-15 -4.83238e-15 -5.06819e-15 -5.14851e-15 -5.06819e-15 -4.83238e-15 -4.4562e-15 -3.96393e-15 -3.38744e-15 -2.76389e-15 -2.13269e-15 -1.53191e-15 -9.94497e-16 -5.45093e-16 -1.97679e-16 4.51904e-17 1.91496e-16 2.5734e-16 2.63533e-16 2.31879e-16 1.81925e-16 1.28741e-16 8.20126e-17 4.63273e-17 2.23304e-17 8.23495e-18 1.24841e-18 -1.38e-18 -1.79005e-18 -1.35517e-18 -7.91146e-19 -3.71101e-19 -1.33345e-19 -2.77004e-20 6.22303e-21 1.04752e-20 6.66017e-21 2.89771e-21 8.5959e-22 9.75246e-23 -7.15876e-23 -5.82752e-23 -2.40376e-23 -5.62113e-24 8.06418e-26 7.31556e-25 3.4746e-25 7.96277e-26 -1.941e-27 -8.9935e-27 -3.43684e-27 -4.7559e-28 1.35598e-28 8.87081e-29 1.84256e-29 -1.1903e-30 -1.77986e-30 -4.33424e-31 5.13136e-33 3.1132e-32 7.69098e-33 -8.59734e-35 -4.95458e-34 -1.08109e-34 4.85895e-36 7.07463e-36 1.17791e-36 -1.40411e-37 -8.65916e-38 -8.86413e-39 2.59683e-39 8.55427e-40 2.26821e-41 -3.43097e-41 -6.28775e-42 4.7736e-43 3.69215e-43 1.36771e-45 -0 -0 0 0 0 0 0 0 0 0 0 0 0 0 0 0 0 0 0 0 0 0 0 0 0 
0 0 0 0 0 0 0 0 0 0 0 0 0 0 0 0 0 0 0 0 0 0 0 -0 -0 2.05654e-44 5.8817e-43 6.14219e-43 -1.10285e-41 -5.18974e-41 7.62537e-41 1.47113e-39 3.58227e-39 -1.91795e-38 -1.46081e-37 -1.40037e-37 2.4118e-36 1.16843e-35 -1.8395e-36 -2.20629e-34 -8.02121e-34 7.30733e-34 1.61047e-32 5.0314e-32 -5.452e-32 -9.64768e-31 -2.99563e-30 1.59872e-30 4.64348e-29 1.64548e-28 8.46066e-29 -1.61693e-27 -7.51781e-27 -1.28921e-26 2.62452e-26 2.37688e-25 7.28075e-25 8.22993e-25 -3.00795e-24 -1.94802e-23 -5.69867e-23 -8.75339e-23 5.49368e-23 8.43242e-22 3.11641e-21 7.40497e-21 1.11826e-20 2.24787e-21 -5.21769e-20 -2.15013e-19 -5.68545e-19 -1.14469e-18 -1.74265e-18 -1.59338e-18 1.09792e-18 9.55286e-18 2.83888e-17 6.26228e-17 1.15197e-16 1.82831e-16 2.50648e-16 2.86837e-16 2.39267e-16 3.61413e-17 -4.0787e-16 -1.1799e-15 -2.35326e-15 -3.971e-15 -6.03284e-15 -8.4887e-15 -1.12415e-14 -1.41585e-14 -1.70892e-14 -1.9886e-14 -2.24228e-14 -2.46079e-14 -2.63888e-14 -2.77486e-14 -2.86961e-14 -2.92519e-14 -2.94346e-14 -2.92519e-14 -2.86961e-14 -2.77486e-14 -2.63888e-14 -2.46079e-14 -2.24228e-14 -1.9886e-14 -1.70892e-14 -1.41585e-14 -1.12415e-14 -8.4887e-15 -6.03284e-15 -3.971e-15 -2.35326e-15 -1.1799e-15 -4.0787e-16 3.61413e-17 2.39267e-16 2.86837e-16 2.50648e-16 1.82831e-16 1.15197e-16 6.26228e-17 2.83888e-17 9.55286e-18 1.09792e-18 -1.59338e-18 -1.74265e-18 -1.14469e-18 -5.68545e-19 -2.15013e-19 -5.21769e-20 2.24787e-21 1.11826e-20 7.40497e-21 3.11641e-21 8.43242e-22 5.49368e-23 -8.75339e-23 -5.69867e-23 -1.94802e-23 -3.00795e-24 8.22993e-25 7.28075e-25 2.37688e-25 2.62452e-26 -1.28921e-26 -7.51781e-27 -1.61693e-27 8.46066e-29 1.64548e-28 4.64348e-29 1.59872e-30 -2.99563e-30 -9.64768e-31 -5.452e-32 5.0314e-32 1.61047e-32 7.30733e-34 -8.02121e-34 -2.20629e-34 -1.8395e-36 1.16843e-35 2.4118e-36 -1.40037e-37 -1.46081e-37 -1.91795e-38 3.58227e-39 1.47113e-39 7.62537e-41 -5.18974e-41 -1.10285e-41 6.23665e-43 5.88134e-43 2.05654e-44 -0 -0 0 0 0 0 0 0 0 0 0 0 0 0 0 0 0 0 0 0 0 0 0 0 
0 0 0 0 0 0 0 0 0 0 0 0 0 0 0 0 0 0 0 0 0 0 -0 -0 4.94645e-44 7.66747e-43 4.28718e-43 -1.8248e-41 -7.49543e-41 1.75625e-40 2.3885e-39 4.52551e-39 -3.69549e-38 -2.32097e-37 -6.78118e-38 4.50273e-36 1.7977e-35 -2.00374e-35 -4.11113e-34 -1.18331e-33 2.73765e-33 3.05254e-32 7.19488e-32 -2.07462e-31 -1.90762e-30 -4.36818e-30 1.00932e-29 9.9897e-29 2.62719e-28 -2.24477e-28 -4.11918e-27 -1.39786e-26 -1.01619e-26 1.10103e-25 5.56839e-25 1.19589e-24 -3.68114e-25 -1.24546e-23 -4.86509e-23 -9.8891e-23 -2.40358e-23 6.56158e-22 2.9143e-21 7.54194e-21 1.17985e-20 6.15078e-22 -6.86086e-20 -2.78761e-19 -7.30166e-19 -1.40985e-18 -1.84705e-18 -4.75948e-19 6.20007e-18 2.41608e-17 6.10945e-17 1.22759e-16 2.04971e-16 2.80742e-16 2.84335e-16 9.70077e-17 -4.58211e-16 -1.60473e-15 -3.5783e-15 -6.57146e-15 -1.06652e-14 -1.57638e-14 -2.1553e-14 -2.74983e-14 -3.28929e-14 -3.69518e-14 -3.89389e-14 -3.83e-14 -3.47773e-14 -2.84804e-14 -1.98986e-14 -9.85431e-15 5.97204e-16 1.03046e-14 1.81679e-14 2.32827e-14 2.50568e-14 2.32827e-14 1.81679e-14 1.03046e-14 5.97204e-16 -9.85431e-15 -1.98986e-14 -2.84804e-14 -3.47773e-14 -3.83e-14 -3.89389e-14 -3.69518e-14 -3.28929e-14 -2.74983e-14 -2.1553e-14 -1.57638e-14 -1.06652e-14 -6.57146e-15 -3.5783e-15 -1.60473e-15 -4.58211e-16 9.70077e-17 2.84335e-16 2.80742e-16 2.04971e-16 1.22759e-16 6.10945e-17 2.41608e-17 6.20007e-18 -4.75948e-19 -1.84705e-18 -1.40985e-18 -7.30166e-19 -2.78761e-19 -6.86086e-20 6.15078e-22 1.17985e-20 7.54194e-21 2.9143e-21 6.56158e-22 -2.40358e-23 -9.8891e-23 -4.86509e-23 -1.24546e-23 -3.68114e-25 1.19589e-24 5.56839e-25 1.10103e-25 -1.01619e-26 -1.39786e-26 -4.11918e-27 -2.24477e-28 2.62719e-28 9.9897e-29 1.00932e-29 -4.36818e-30 -1.90762e-30 -2.07462e-31 7.19488e-32 3.05254e-32 2.73765e-33 -1.18331e-33 -4.11113e-34 -2.00374e-35 1.7977e-35 4.50273e-36 -6.78118e-38 -2.32097e-37 -3.69549e-38 4.52551e-39 2.3885e-39 1.75625e-40 -7.49543e-41 -1.81571e-41 4.34189e-43 7.66747e-43 4.94645e-44 -0 -0 0 0 0 0 0 0 0 0 0 0 0 0 0 0 0 0 0 0 0 0 0 
0 0 0 0 0 0 0 0 0 0 0 0 0 0 0 0 0 0 0 0 0 -0 0 1.07381e-43 1.04646e-42 5.50804e-45 -2.87189e-41 -1.0323e-40 3.40741e-40 3.68096e-39 5.13964e-39 -6.52689e-38 -3.48857e-37 1.38386e-37 7.79436e-36 2.58079e-35 -5.82137e-35 -7.09637e-34 -1.57534e-33 6.81341e-33 5.31847e-32 8.79647e-32 -5.28112e-31 -3.41897e-30 -5.2447e-30 2.96132e-29 1.90305e-28 3.48458e-28 -1.10907e-27 -8.82172e-27 -2.20033e-26 1.37849e-26 3.0188e-25 1.08513e-24 1.3506e-24 -5.12418e-24 -3.39907e-23 -9.50604e-23 -1.02313e-22 3.60424e-22 2.32248e-21 6.99228e-21 1.23758e-20 3.06529e-21 -6.91468e-20 -3.03078e-19 -8.16404e-19 -1.54932e-18 -1.72156e-18 1.19974e-18 1.28206e-17 4.23708e-17 1.00063e-16 1.87511e-16 2.77445e-16 2.81824e-16 1.44132e-17 -8.36296e-16 -2.6986e-15 -6.04585e-15 -1.12432e-14 -1.83185e-14 -2.6696e-14 -3.49611e-14 -4.07431e-14 -4.07887e-14 -3.12634e-14 -8.25866e-15 3.15739e-14 9.03878e-14 1.6863e-13 2.64767e-13 3.75302e-13 4.95065e-13 6.1772e-13 7.36382e-13 8.44247e-13 9.35134e-13 1.0039e-12 1.04672e-12 1.06126e-12 1.04672e-12 1.0039e-12 9.35134e-13 8.44247e-13 7.36382e-13 6.1772e-13 4.95065e-13 3.75302e-13 2.64767e-13 1.6863e-13 9.03878e-14 3.15739e-14 -8.25866e-15 -3.12634e-14 -4.07887e-14 -4.07431e-14 -3.49611e-14 -2.6696e-14 -1.83185e-14 -1.12432e-14 -6.04585e-15 -2.6986e-15 -8.36296e-16 1.44132e-17 2.81824e-16 2.77445e-16 1.87511e-16 1.00063e-16 4.23708e-17 1.28206e-17 1.19974e-18 -1.72156e-18 -1.54932e-18 -8.16404e-19 -3.03078e-19 -6.91468e-20 3.06529e-21 1.23758e-20 6.99228e-21 2.32248e-21 3.60424e-22 -1.02313e-22 -9.50604e-23 -3.39907e-23 -5.12418e-24 1.3506e-24 1.08513e-24 3.0188e-25 1.37849e-26 -2.20033e-26 -8.82172e-27 -1.10907e-27 3.48458e-28 1.90305e-28 2.96132e-29 -5.2447e-30 -3.41897e-30 -5.28112e-31 8.79647e-32 5.31847e-32 6.81341e-33 -1.57534e-33 -7.09637e-34 -5.82137e-35 2.58079e-35 7.79436e-36 1.38386e-37 -3.48857e-37 -6.52689e-38 5.13964e-39 3.68096e-39 3.40886e-40 -1.02484e-40 -2.84652e-41 2.20322e-44 1.04096e-42 1.07381e-43 0 -0 0 0 0 0 0 0 0 0 0 0 0 0 0 0 0 0 0 0 0 0 
0 0 0 0 0 0 0 0 0 0 0 0 0 0 0 0 0 0 0 0 -0 0 1.87546e-43 1.52151e-42 -4.78749e-43 -4.2763e-41 -1.36311e-40 5.92353e-40 5.40653e-39 5.0289e-39 -1.07339e-37 -4.97863e-37 5.59086e-37 1.2641e-35 3.45572e-35 -1.2736e-34 -1.14532e-33 -1.84703e-33 1.41142e-32 8.59828e-32 8.2681e-32 -1.11715e-30 -5.61526e-30 -4.28084e-30 6.77359e-29 3.26543e-28 3.36481e-28 -3.06506e-27 -1.65452e-26 -2.79693e-26 8.57093e-26 6.6871e-25 1.77392e-24 1.66869e-25 -1.73587e-23 -7.33991e-23 -1.42581e-22 6.30845e-23 1.48855e-21 5.72641e-21 1.23246e-20 8.55809e-21 -5.30445e-20 -2.8016e-19 -8.11737e-19 -1.57808e-18 -1.57502e-18 2.59397e-18 1.8601e-17 5.88141e-17 1.34562e-16 2.36489e-16 2.92854e-16 1.04535e-16 -7.26199e-16 -2.82744e-15 -6.9748e-15 -1.38083e-14 -2.32928e-14 -3.39455e-14 -4.19751e-14 -4.05945e-14 -1.98306e-14 3.28871e-14 1.31246e-13 2.87812e-13 5.11449e-13 8.04951e-13 1.16355e-12 1.57466e-12 2.01918e-12 2.47392e-12 2.91491e-12 3.32063e-12 3.67475e-12 3.9676e-12 4.19632e-12 4.36362e-12 4.47562e-12 4.53926e-12 4.55982e-12 4.53926e-12 4.47562e-12 4.36362e-12 4.19632e-12 3.9676e-12 3.67475e-12 3.32063e-12 2.91491e-12 2.47392e-12 2.01918e-12 1.57466e-12 1.16355e-12 8.04951e-13 5.11449e-13 2.87812e-13 1.31246e-13 3.28871e-14 -1.98306e-14 -4.05945e-14 -4.19751e-14 -3.39455e-14 -2.32928e-14 -1.38083e-14 -6.9748e-15 -2.82744e-15 -7.26199e-16 1.04535e-16 2.92854e-16 2.36489e-16 1.34562e-16 5.88141e-17 1.8601e-17 2.59397e-18 -1.57502e-18 -1.57808e-18 -8.11737e-19 -2.8016e-19 -5.30445e-20 8.55809e-21 1.23246e-20 5.72641e-21 1.48855e-21 6.30845e-23 -1.42581e-22 -7.33991e-23 -1.73587e-23 1.66869e-25 1.77392e-24 6.6871e-25 8.57093e-26 -2.79693e-26 -1.65452e-26 -3.06506e-27 3.36481e-28 3.26543e-28 6.77359e-29 -4.28084e-30 -5.61526e-30 -1.11715e-30 8.2681e-32 8.59828e-32 1.41142e-32 -1.84703e-33 -1.14532e-33 -1.2736e-34 3.45572e-35 1.2641e-35 5.59087e-37 -4.97862e-37 -1.0734e-37 5.02906e-39 5.4073e-39 5.91092e-40 -1.35262e-40 -4.2487e-41 -4.63572e-43 1.52151e-42 1.65481e-43 0 -0 0 0 0 0 0 0 0 0 0 0 0 0 0 0 0 0 0 0 0 
0 0 0 0 0 0 0 0 0 0 0 0 0 0 0 0 0 0 0 -0 0 2.83108e-43 1.9301e-42 -1.56997e-42 -6.07092e-41 -1.72489e-40 9.47816e-40 7.59499e-39 3.73552e-39 -1.66002e-37 -6.769e-37 1.2851e-36 1.93489e-35 4.30498e-35 -2.40038e-34 -1.74003e-33 -1.78982e-33 2.59837e-32 1.29807e-31 3.13229e-32 -2.09408e-30 -8.5021e-30 7.55981e-31 1.33826e-28 5.08614e-28 6.93319e-29 -6.7556e-27 -2.76514e-26 -2.35235e-26 2.46542e-25 1.272e-24 2.34982e-24 -4.32036e-24 -4.23647e-23 -1.31206e-22 -1.34848e-22 6.53366e-22 3.93087e-21 1.09364e-20 1.3921e-20 -2.69444e-20 -2.17706e-19 -7.20405e-19 -1.5166e-18 -1.57907e-18 2.94677e-18 2.1244e-17 6.82748e-17 1.55566e-16 2.58603e-16 2.45341e-16 -2.36191e-16 -1.87218e-15 -5.68877e-15 -1.27581e-14 -2.33755e-14 -3.55564e-14 -4.29398e-14 -3.25759e-14 1.65151e-14 1.32895e-13 3.49398e-13 6.96634e-13 1.19398e-12 1.83984e-12 2.60379e-12 3.42316e-12 4.20616e-12 4.84185e-12 5.21593e-12 5.2296e-12 4.81776e-12 3.96304e-12 2.70304e-12 1.12912e-12 -6.22818e-13 -2.38782e-12 -3.99196e-12 -5.27275e-12 -6.09849e-12 -6.38366e-12 -6.09849e-12 -5.27275e-12 -3.99196e-12 -2.38782e-12 -6.22818e-13 1.12912e-12 2.70304e-12 3.96304e-12 4.81776e-12 5.2296e-12 5.21593e-12 4.84185e-12 4.20616e-12 3.42316e-12 2.60379e-12 1.83984e-12 1.19398e-12 6.96634e-13 3.49398e-13 1.32895e-13 1.65151e-14 -3.25759e-14 -4.29398e-14 -3.55564e-14 -2.33755e-14 -1.27581e-14 -5.68877e-15 -1.87218e-15 -2.36191e-16 2.45341e-16 2.58603e-16 1.55566e-16 6.82748e-17 2.1244e-17 2.94677e-18 -1.57907e-18 -1.5166e-18 -7.20405e-19 -2.17706e-19 -2.69444e-20 1.3921e-20 1.09364e-20 3.93087e-21 6.53366e-22 -1.34848e-22 -1.31206e-22 -4.23647e-23 -4.32036e-24 2.34982e-24 1.272e-24 2.46542e-25 -2.35235e-26 -2.76514e-26 -6.7556e-27 6.93319e-29 5.08614e-28 1.33826e-28 7.55981e-31 -8.5021e-30 -2.09408e-30 3.13229e-32 1.29807e-31 2.59837e-32 -1.78982e-33 -1.74003e-33 -2.40038e-34 4.30498e-35 1.93489e-35 1.2851e-36 -6.769e-37 -1.66001e-37 3.73032e-39 7.5519e-39 9.4195e-40 -1.71482e-40 -6.02932e-41 -1.54786e-42 1.91075e-42 2.83108e-43 0 -0 0 0 0 0 0 0 0 0 0 0 0 0 0 0 0 0 0 0 
0 0 0 0 0 0 0 0 0 0 0 0 0 0 0 0 0 0 -0 0 4.12041e-43 2.58842e-42 -2.84556e-42 -8.23496e-41 -2.09898e-40 1.41699e-39 1.02368e-38 8.26775e-40 -2.43068e-37 -8.7971e-37 2.40291e-36 2.81077e-35 4.96081e-35 -4.0859e-34 -2.50165e-33 -1.12591e-33 4.37706e-32 1.83833e-31 -9.9567e-32 -3.58059e-30 -1.18988e-29 1.30276e-29 2.37701e-28 7.20026e-28 -6.95011e-28 -1.29283e-26 -4.14019e-26 6.12146e-27 5.48817e-25 2.12698e-24 2.15782e-24 -1.5171e-23 -8.5316e-23 -1.93303e-22 5.05371e-23 2.05813e-21 8.13616e-21 1.60215e-20 -1.28583e-21 -1.35326e-19 -5.61528e-19 -1.3605e-18 -1.71661e-18 2.08781e-18 1.97819e-17 6.81499e-17 1.59653e-16 2.57752e-16 1.72651e-16 -6.08128e-16 -3.08324e-15 -8.67342e-15 -1.85166e-14 -3.15977e-14 -4.1353e-14 -3.10224e-14 3.08679e-14 1.92221e-13 5.12788e-13 1.05018e-12 1.83552e-12 2.84129e-12 3.94831e-12 4.92152e-12 5.40506e-12 4.94383e-12 3.03303e-12 -8.10221e-13 -6.96601e-12 -1.56369e-11 -2.6795e-11 -4.01614e-11 -5.52215e-11 -7.12713e-11 -8.74865e-11 -1.03e-10 -1.16976e-10 -1.28669e-10 -1.37471e-10 -1.42933e-10 -1.44784e-10 -1.42933e-10 -1.37471e-10 -1.28669e-10 -1.16976e-10 -1.03e-10 -8.74865e-11 -7.12713e-11 -5.52215e-11 -4.01614e-11 -2.6795e-11 -1.56369e-11 -6.96601e-12 -8.10221e-13 3.03303e-12 4.94383e-12 5.40506e-12 4.92152e-12 3.94831e-12 2.84129e-12 1.83552e-12 1.05018e-12 5.12788e-13 1.92221e-13 3.08679e-14 -3.10224e-14 -4.1353e-14 -3.15977e-14 -1.85166e-14 -8.67342e-15 -3.08324e-15 -6.08128e-16 1.72651e-16 2.57752e-16 1.59653e-16 6.81499e-17 1.97819e-17 2.08781e-18 -1.71661e-18 -1.3605e-18 -5.61528e-19 -1.35326e-19 -1.28583e-21 1.60215e-20 8.13616e-21 2.05813e-21 5.05371e-23 -1.93303e-22 -8.5316e-23 -1.5171e-23 2.15782e-24 2.12698e-24 5.48817e-25 6.12146e-27 -4.14019e-26 -1.29283e-26 -6.95011e-28 7.20026e-28 2.37701e-28 1.30276e-29 -1.18988e-29 -3.58059e-30 -9.9567e-32 1.83833e-31 4.37706e-32 -1.12591e-33 -2.50165e-33 -4.0859e-34 4.9608e-35 2.81077e-35 2.40291e-36 -8.79718e-37 -2.43126e-37 7.231e-40 1.01643e-38 1.40772e-39 -2.08717e-40 -8.18041e-41 -2.78051e-42 2.54691e-42 3.81622e-43 0 -0 0 0 0 0 0 0 0 0 0 0 0 0 0 0 0 0 0 
0 0 0 0 0 0 0 0 0 0 0 0 0 0 0 0 0 -0 0 4.98249e-43 3.07735e-42 -4.58113e-42 -1.06414e-40 -2.45966e-40 1.99561e-39 1.32769e-38 -3.99239e-39 -3.38699e-37 -1.09663e-36 3.97513e-36 3.89277e-35 5.22783e-35 -6.42695e-34 -3.41888e-33 4.59219e-34 6.85731e-32 2.45061e-31 -3.48979e-31 -5.67623e-30 -1.5384e-29 3.64092e-29 3.87484e-28 9.21138e-28 -2.27567e-27 -2.2251e-26 -5.5259e-26 8.27699e-26 1.04737e-24 3.14608e-24 2.98914e-26 -3.63076e-23 -1.48147e-22 -2.18865e-22 6.1875e-22 4.72462e-21 1.38486e-20 1.50935e-20 -5.74221e-20 -3.69305e-19 -1.10113e-18 -1.80908e-18 5.08179e-19 1.49558e-17 5.9068e-17 1.48171e-16 2.4451e-16 1.26501e-16 -8.38202e-16 -3.91448e-15 -1.08479e-14 -2.25832e-14 -3.58127e-14 -3.65973e-14 8.28789e-15 1.5885e-13 5.01219e-13 1.12919e-12 2.09906e-12 3.3548e-12 4.63234e-12 5.36521e-12 4.62564e-12 1.13595e-12 -6.62411e-12 -2.02138e-11 -4.09581e-11 -6.96589e-11 -1.06358e-10 -1.50216e-10 -1.99539e-10 -2.51968e-10 -3.04792e-10 -3.55314e-10 -4.01211e-10 -4.40801e-10 -4.73184e-10 -4.98216e-10 -5.16349e-10 -5.28388e-10 -5.35182e-10 -5.37367e-10 -5.35182e-10 -5.28388e-10 -5.16349e-10 -4.98216e-10 -4.73184e-10 -4.40801e-10 -4.01211e-10 -3.55314e-10 -3.04792e-10 -2.51968e-10 -1.99539e-10 -1.50216e-10 -1.06358e-10 -6.96589e-11 -4.09581e-11 -2.02138e-11 -6.62411e-12 1.13595e-12 4.62564e-12 5.36521e-12 4.63234e-12 3.3548e-12 2.09906e-12 1.12919e-12 5.01219e-13 1.5885e-13 8.28789e-15 -3.65973e-14 -3.58127e-14 -2.25832e-14 -1.08479e-14 -3.91448e-15 -8.38202e-16 1.26501e-16 2.4451e-16 1.48171e-16 5.9068e-17 1.49558e-17 5.08179e-19 -1.80908e-18 -1.10113e-18 -3.69305e-19 -5.74221e-20 1.50935e-20 1.38486e-20 4.72462e-21 6.1875e-22 -2.18865e-22 -1.48147e-22 -3.63076e-23 2.98914e-26 3.14608e-24 1.04737e-24 8.27699e-26 -5.5259e-26 -2.2251e-26 -2.27567e-27 9.21138e-28 3.87484e-28 3.64092e-29 -1.5384e-29 -5.67623e-30 -3.48979e-31 2.45061e-31 6.85731e-32 4.59219e-34 -3.41888e-33 -6.42695e-34 5.22783e-35 3.89277e-35 3.97507e-36 -1.09661e-36 -3.37175e-37 -3.99967e-39 1.3195e-38 1.98354e-39 -2.44481e-40 -1.05732e-40 -4.51462e-42 3.03165e-42 4.81641e-43 0 -0 0 0 0 0 0 0 0 0 0 0 0 0 0 0 0 0 
0 0 0 0 0 0 0 0 0 0 0 0 0 0 0 0 -0 0 5.96948e-43 3.60114e-42 -6.33186e-42 -1.31311e-40 -2.7778e-40 2.65775e-39 1.65909e-38 -1.07702e-38 -4.50936e-37 -1.31618e-36 6.02009e-36 5.15995e-35 4.92139e-35 -9.46711e-34 -4.45959e-33 3.26091e-33 1.00958e-31 3.08323e-31 -7.55415e-31 -8.43131e-30 -1.82925e-29 7.49722e-29 5.8706e-28 1.04655e-27 -5.03424e-27 -3.50892e-26 -6.43843e-26 2.33808e-25 1.78316e-24 4.08079e-24 -5.74257e-24 -7.17185e-23 -2.2509e-22 -1.29707e-22 1.84737e-21 8.95977e-21 1.92532e-20 -3.48652e-21 -1.88397e-19 -7.66267e-19 -1.67931e-18 -9.96767e-19 8.67511e-18 4.40787e-17 1.24573e-16 2.24393e-16 1.31394e-16 -8.24775e-16 -4.06684e-15 -1.15826e-14 -2.40838e-14 -3.57207e-14 -2.38839e-14 6.4754e-14 3.24859e-13 8.84068e-13 1.8526e-12 3.20822e-12 4.60898e-12 5.15848e-12 3.19034e-12 -3.82439e-12 -1.91347e-11 -4.62547e-11 -8.81989e-11 -1.46518e-10 -2.20349e-10 -3.05731e-10 -3.95448e-10 -4.7953e-10 -5.4642e-10 -5.84634e-10 -5.84629e-10 -5.40524e-10 -4.51353e-10 -3.21608e-10 -1.61001e-10 1.65545e-11 1.94506e-10 3.55606e-10 4.83869e-10 5.6641e-10 5.94886e-10 5.6641e-10 4.83869e-10 3.55606e-10 1.94506e-10 1.65545e-11 -1.61001e-10 -3.21608e-10 -4.51353e-10 -5.40524e-10 -5.84629e-10 -5.84634e-10 -5.4642e-10 -4.7953e-10 -3.95448e-10 -3.05731e-10 -2.20349e-10 -1.46518e-10 -8.81989e-11 -4.62547e-11 -1.91347e-11 -3.82439e-12 3.19034e-12 5.15848e-12 4.60898e-12 3.20822e-12 1.8526e-12 8.84068e-13 3.24859e-13 6.4754e-14 -2.38839e-14 -3.57207e-14 -2.40838e-14 -1.15826e-14 -4.06684e-15 -8.24775e-16 1.31394e-16 2.24393e-16 1.24573e-16 4.40787e-17 8.67511e-18 -9.96767e-19 -1.67931e-18 -7.66267e-19 -1.88397e-19 -3.48652e-21 1.92532e-20 8.95977e-21 1.84737e-21 -1.29707e-22 -2.2509e-22 -7.17185e-23 -5.74257e-24 4.08079e-24 1.78316e-24 2.33808e-25 -6.43843e-26 -3.50892e-26 -5.03424e-27 1.04655e-27 5.8706e-28 7.49722e-29 -1.82925e-29 -8.43131e-30 -7.55415e-31 3.08323e-31 1.00958e-31 3.26091e-33 -4.45959e-33 -9.4671e-34 4.9214e-35 5.15995e-35 6.02255e-36 -1.30623e-36 -4.47923e-37 -1.068e-38 1.64943e-38 2.64229e-39 -2.7619e-40 -1.30486e-40 -6.29302e-42 3.60114e-42 5.96948e-43 0 -0 0 0 0 0 0 0 0 0 0 0 0 0 0 0 0 
0 0 0 0 0 0 0 0 0 0 0 0 0 0 0 -0 0 6.7068e-43 3.96809e-42 -8.04376e-42 -1.5454e-40 -3.03984e-40 3.35396e-39 1.99689e-38 -1.92514e-38 -5.75556e-37 -1.52725e-36 8.4954e-36 6.56882e-35 3.91442e-35 -1.31744e-33 -5.57362e-33 7.48516e-33 1.40726e-31 3.66906e-31 -1.3488e-30 -1.18246e-29 -1.97836e-29 1.32217e-28 8.33864e-28 1.00931e-27 -9.31329e-27 -5.1282e-26 -6.16328e-26 4.88298e-25 2.76328e-24 4.48559e-24 -1.72601e-23 -1.24103e-22 -2.98045e-22 1.92736e-22 4.03346e-21 1.46166e-20 2.00984e-20 -5.74673e-20 -4.28735e-19 -1.29749e-18 -1.81308e-18 3.03644e-18 2.73845e-17 9.335e-17 1.9531e-16 1.69585e-16 -5.94798e-16 -3.52936e-15 -1.07842e-14 -2.31182e-14 -3.31054e-14 -1.10497e-14 1.15069e-13 4.73598e-13 1.2276e-12 2.47024e-12 3.98713e-12 4.86748e-12 3.02495e-12 -5.19524e-12 -2.50371e-11 -6.26568e-11 -1.23518e-10 -2.09871e-10 -3.17693e-10 -4.33795e-10 -5.34019e-10 -5.83377e-10 -5.3863e-10 -3.5326e-10 1.58898e-11 6.01429e-10 1.41912e-09 2.46365e-09 3.70733e-09 5.10178e-09 6.58235e-09 8.07412e-09 9.49867e-09 1.07805e-08 1.18522e-08 1.26586e-08 1.31591e-08 1.33286e-08 1.31591e-08 1.26586e-08 1.18522e-08 1.07805e-08 9.49867e-09 8.07412e-09 6.58235e-09 5.10178e-09 3.70733e-09 2.46365e-09 1.41912e-09 6.01429e-10 1.58898e-11 -3.5326e-10 -5.3863e-10 -5.83377e-10 -5.34019e-10 -4.33795e-10 -3.17693e-10 -2.09871e-10 -1.23518e-10 -6.26568e-11 -2.50371e-11 -5.19524e-12 3.02495e-12 4.86748e-12 3.98713e-12 2.47024e-12 1.2276e-12 4.73598e-13 1.15069e-13 -1.10497e-14 -3.31054e-14 -2.31182e-14 -1.07842e-14 -3.52936e-15 -5.94798e-16 1.69585e-16 1.9531e-16 9.335e-17 2.73845e-17 3.03644e-18 -1.81308e-18 -1.29749e-18 -4.28735e-19 -5.74673e-20 2.00984e-20 1.46166e-20 4.03346e-21 1.92736e-22 -2.98045e-22 -1.24103e-22 -1.72601e-23 4.48559e-24 2.76328e-24 4.88298e-25 -6.16328e-26 -5.1282e-26 -9.31329e-27 1.00931e-27 8.33864e-28 1.32217e-28 -1.97836e-29 -1.18246e-29 -1.3488e-30 3.66906e-31 1.40726e-31 7.48519e-33 -5.57362e-33 -1.31744e-33 3.91467e-35 6.56965e-35 8.47234e-36 -1.51584e-36 -5.71942e-37 -1.91212e-38 1.98534e-38 3.33446e-39 -3.02196e-40 -1.5366e-40 -7.94937e-42 3.9251e-42 6.55437e-43 0 -0 0 0 0 0 0 0 0 0 0 0 0 0 0 0 
0 0 0 0 0 0 0 0 0 0 0 0 0 0 -0 0 7.04107e-43 4.15407e-42 -9.48081e-42 -1.73631e-40 -3.23126e-40 4.01501e-39 2.31502e-38 -2.87774e-38 -7.05442e-37 -1.72114e-36 1.1291e-35 8.05662e-35 2.18003e-35 -1.74296e-33 -6.70006e-33 1.31806e-32 1.86789e-31 4.13739e-31 -2.14209e-30 -1.57525e-29 -1.89813e-29 2.10208e-28 1.11779e-27 7.12947e-28 -1.53589e-26 -6.99976e-26 -3.82461e-26 8.71006e-25 3.94314e-24 3.72899e-24 -3.66642e-23 -1.93245e-22 -3.33724e-22 8.96983e-22 7.39623e-21 2.07403e-20 9.2328e-21 -1.68301e-19 -7.95103e-19 -1.80294e-18 -5.79349e-19 1.29799e-17 6.02427e-17 1.54605e-16 2.01158e-16 -2.72112e-16 -2.5452e-15 -8.81173e-15 -2.02845e-14 -2.98626e-14 -5.21988e-15 1.37266e-13 5.51413e-13 1.42607e-12 2.8123e-12 4.21541e-12 3.91002e-12 -1.89578e-12 -1.96452e-11 -5.80682e-11 -1.26024e-10 -2.27914e-10 -3.5669e-10 -4.85527e-10 -5.60322e-10 -4.95861e-10 -1.78378e-10 5.24002e-10 1.74336e-09 3.58938e-09 6.12642e-09 9.35563e-09 1.32064e-08 1.75397e-08 2.21635e-08 2.68565e-08 3.13967e-08 3.5588e-08 3.92809e-08 4.23824e-08 4.48557e-08 4.67106e-08 4.79846e-08 4.87245e-08 4.89666e-08 4.87245e-08 4.79846e-08 4.67106e-08 4.48557e-08 4.23824e-08 3.92809e-08 3.5588e-08 3.13967e-08 2.68565e-08 2.21635e-08 1.75397e-08 1.32064e-08 9.35563e-09 6.12642e-09 3.58938e-09 1.74336e-09 5.24002e-10 -1.78378e-10 -4.95861e-10 -5.60322e-10 -4.85527e-10 -3.5669e-10 -2.27914e-10 -1.26024e-10 -5.80682e-11 -1.96452e-11 -1.89578e-12 3.91002e-12 4.21541e-12 2.8123e-12 1.42607e-12 5.51413e-13 1.37266e-13 -5.21988e-15 -2.98626e-14 -2.02845e-14 -8.81173e-15 -2.5452e-15 -2.72112e-16 2.01158e-16 1.54605e-16 6.02427e-17 1.29799e-17 -5.79349e-19 -1.80294e-18 -7.95103e-19 -1.68301e-19 9.2328e-21 2.07403e-20 7.39623e-21 8.96983e-22 -3.33724e-22 -1.93245e-22 -3.66642e-23 3.72899e-24 3.94314e-24 8.71006e-25 -3.82461e-26 -6.99976e-26 -1.53589e-26 7.12947e-28 1.11779e-27 2.10208e-28 -1.89813e-29 -1.57525e-29 -2.14209e-30 4.13739e-31 1.86789e-31 1.31806e-32 -6.70006e-33 -1.74295e-33 2.17395e-35 8.01161e-35 1.12208e-35 -1.71127e-36 -7.01286e-37 -2.85999e-38 2.30185e-38 3.9921e-39 -3.21359e-40 -1.7265e-40 -9.41138e-42 4.15407e-42 7.02721e-43 0 -0 0 0 0 0 0 0 0 0 0 0 0 0 0 