<?xml version="1.0"?>
<VTKFile type="ImageData" version="0.1" byte_order="LittleEndian">
<ImageData WholeExtent="0 199 0 199 0 0" Origin="0 0 0" Spacing="15 15 0">
<Piece Extent="0 199 0 199 0 0">
<PointData Scalars="Amplitude">
<DataArray type="Float32" Name="Amplitude" format="ascii">
0 0 0 0 0 0 0 0 0 0 0 0 0 0 0 0 0 0 0 0 0 0 0 0 0 0 0 0 0 0 0 0 0 0 0 0 0 0 0 0 0 0 0 0 0 0 0 0 0 0 0 0 0 0 0 0 0 0 0 0 0 0 0 0 0 0 0 0 0 0 0 0 0 0 0 0 0 0 0 0 0 0 0 0 0 0 0 0 0 0 0 0 0 0 0 0 0 0 0 0 0 0 0 0 0 0 0 0 0 0 0 0 0 0 0 0 0 0 0 0 0 0 0 0 0 0 0 0 0 0 0 0 0 0 0 0 0 0 0 0 0 0 0 0 0 0 0 0 0 0 0 0 0 0 0 0 0 0 0 0 0 0 0 0 0 0 0 0 0 0 0 0 0 0 0 0 0 0 0 0 0 0 0 0 0 0 0 0 0 0 0 0 0 0 0 0 0 0 0 0 
0 0 0 0 0 0 0 0 0 0 0 0 0 0 0 0 0 0 0 0 0 0 0 0 0 0 0 0 0 0 0 0 0 0 0 0 0 0 0 0 0 0 0 0 0 0 0 0 0 0 0 0 0 0 0 0 0 0 0 0 0 0 0 0 0 0 0 0 0 0 0 0 0 0 0 0 0 0 0 0 0 0 0 0 0 0 0 0 0 0 0 0 0 0 0 0 0 0 0 0 0 0 0 0 0 0 0 0 0 0 0 0 0 0 0 0 0 0 0 0 0 0 0 0 0 0 0 0 0 0 0 0 0 0 0 0 0 0 0 0 0 0 0 0 0 0 0 0 0 0 0 0 0 0 0 0 0 0 0 0 0 0 0 0 0 0 0 0 0 0 0 0 0 0 0 0 0 0 0 0 0 0 0 0 0 0 0 0 0 0 0 0 0 0 0 0 0 0 0 0 
0 0 0 0 0 0 0 0 0 0 0 0 0 0 0 0 0 0 0 0 0 0 0 0 0 0 0 0 0 0 0 0 0 0 0 0 0 0 0 0 0 0 0 0 0 0 0 0 0 0 0 0 0 0 0 0 0 0 0 0 0 0 0 0 0 -0 -0 -0 1.43859e-43 1.71138e-42 6.56187e-42 7.51188e-42 -4.43968e-41 -2.7734e-40 -7.53798e-40 -6.2041e-40 4.02989e-39 2.24222e-38 6.4653e-38 1.14677e-37 6.16448e-38 -4.07528e-37 -1.88769e-36 -5.14944e-36 -1.06397e-35 -1.7469e-35 -2.20406e-35 -1.68553e-35 9.72623e-36 7.20937e-35 1.84273e-34 3.55799e-34 5.87934e-34 8.71691e-34 1.18849e-33 1.51334e-33 1.81932e-33 2.08195e-33 2.28207e-33 2.40682e-33 2.44913e-33 2.40682e-33 2.28207e-33 2.08195e-33 1.81932e-33 1.51334e-33 1.18849e-33 8.71691e-34 5.87934e-34 3.55799e-34 1.84273e-34 7.20937e-35 9.72623e-36 -1.68553e-35 -2.20406e-35 -1.7469e-35 -1.06397e-35 -5.14944e-36 -1.88769e-36 -4.07528e-37 6.16448e-38 1.14677e-37 6.4653e-38 2.24222e-38 4.02989e-39 -6.2041e-40 -7.53798e-40 -2.7734e-40 -4.43968e-41 7.51188e-42 6.56187e-42 1.71138e-42 1.43859e-43 -0 -0 -0 0 0 0 0 0 0 0 0 0 0 0 0 0 0 0 0 0 0 0 0 0 0 0 0 0 0 0 0 0 0 0 0 0 0 0 0 0 0 0 0 0 0 0 0 0 0 0 0 0 0 0 0 0 0 0 0 0 0 0 0 0 0 0 0 
0 0 0 0 0 0 0 0 0 0 0 0 0 0 0 0 0 0 0 0 0 0 0 0 0 0 0 0 0 0 0 0 0 0 0 0 0 0 0 0 0 0 0 0 0 0 0 0 0 0 0 0 0 0 0 0 0 0 0 0 0 0 0 0 -5.1281e-45 -1.16976e-43 -4.24595e-43 1.60188e-43 6.62307e-42 2.53688e-41 2.34725e-41 -2.0827e-40 -1.17308e-39 -2.84804e-39 -5.32804e-40 2.44399e-38 1.09814e-37 2.71886e-37 3.34225e-37 -4.4856e-37 -3.8529e-36 -1.26504e-35 -2.89147e-35 -4.93737e-35 -5.75331e-35 -1.46954e-35 1.45157e-34 5.10392e-34 1.17276e-33 2.19654e-33 3.58538e-33 5.26089e-33 7.06559e-33 8.79443e-33 1.0247e-32 1.12837e-32 1.18645e-32 1.20565e-32 1.2006e-32 1.18845e-32 1.1827e-32 1.18845e-32 1.2006e-32 1.20565e-32 1.18645e-32 1.12837e-32 1.0247e-32 8.79443e-33 7.06559e-33 5.26089e-33 3.58538e-33 2.19654e-33 1.17276e-33 5.10392e-34 1.45157e-34 -1.46954e-35 -5.75331e-35 -4.93737e-35 -2.89147e-35 -1.26504e-35 -3.8529e-36 -4.4856e-37 3.34225e-37 2.71886e-37 1.09814e-37 2.44399e-38 -5.32804e-40 -2.84804e-39 -1.17308e-39 -2.0827e-40 2.34725e-41 2.53688e-41 6.62307e-42 1.60188e-43 -4.24595e-43 -1.16976e-43 -5.1281e-45 0 0 0 0 0 0 0 0 0 0 0 0 0 0 0 0 0 0 0 0 0 0 0 0 0 0 0 0 0 0 0 0 0 0 0 0 0 0 0 0 0 0 0 0 0 0 0 0 0 0 0 0 0 0 0 0 0 0 0 0 0 0 0 
0 0 0 0 0 0 0 0 0 0 0 0 0 0 0 0 0 0 0 0 0 0 0 0 0 0 0 0 0 0 0 0 0 0 0 0 0 0 0 0 0 0 0 0 0 0 0 0 0 0 0 0 0 0 0 0 0 0 0 0 0 0 0 -0 -7.50423e-44 -6.34449e-43 -1.17748e-42 4.90504e-42 3.68117e-41 8.93672e-41 -8.59957e-41 -1.44544e-39 -5.26423e-39 -7.39644e-39 2.03043e-38 1.55704e-37 4.92264e-37 8.56581e-37 1.55261e-38 -5.59147e-36 -2.24818e-35 -5.72039e-35 -1.05633e-34 -1.31816e-34 -3.99777e-35 3.46912e-34 1.28107e-33 3.0379e-33 5.81664e-33 9.61899e-33 1.41545e-32 1.88259e-32 2.28264e-32 2.5337e-32 2.57691e-32 2.39713e-32 2.0323e-32 1.56795e-32 1.11708e-32 7.9163e-33 6.7319e-33 7.9163e-33 1.11708e-32 1.56795e-32 2.0323e-32 2.39713e-32 2.57691e-32 2.5337e-32 2.28264e-32 1.88259e-32 1.41545e-32 9.61899e-33 5.81664e-33 3.0379e-33 1.28107e-33 3.46912e-34 -3.99777e-35 -1.31816e-34 -1.05633e-34 -5.72039e-35 -2.24818e-35 -5.59147e-36 1.55261e-38 8.56581e-37 4.92264e-37 1.55704e-37 2.03043e-38 -7.39644e-39 -5.26423e-39 -1.44544e-39 -8.59957e-41 8.93672e-41 3.68117e-41 4.90504e-42 -1.17748e-42 -6.34449e-43 -7.50423e-44 -0 0 0 0 0 0 0 0 0 0 0 0 0 0 0 0 0 0 0 0 0 0 0 0 0 0 0 0 0 0 0 0 0 0 0 0 0 0 0 0 0 0 0 0 0 0 0 0 0 0 0 0 0 0 0 0 0 0 0 0 0 0 0 
0 0 0 0 0 0 0 0 0 0 0 0 0 0 0 0 0 0 0 0 0 0 0 0 0 0 0 0 0 0 0 0 0 0 0 0 0 0 0 0 0 0 0 0 0 0 0 0 0 0 0 0 0 0 0 0 0 0 0 0 0 0 -0 -2.9134e-43 -1.27889e-42 -1.80549e-43 1.94336e-41 8.53435e-41 8.82843e-41 -7.63425e-40 -4.38231e-39 -9.74874e-39 7.03239e-39 1.32566e-37 5.0219e-37 9.47806e-37 -1.9528e-37 -8.18992e-36 -3.26523e-35 -7.98898e-35 -1.2513e-34 -5.63743e-35 3.97331e-34 1.70133e-33 4.42533e-33 8.94154e-33 1.48997e-32 2.06074e-32 2.25851e-32 1.56134e-32 -6.52315e-33 -4.96426e-32 -1.17466e-31 -2.1014e-31 -3.23471e-31 -4.49161e-31 -5.75954e-31 -6.91377e-31 -7.83607e-31 -8.43074e-31 -8.63603e-31 -8.43074e-31 -7.83607e-31 -6.91377e-31 -5.75954e-31 -4.49161e-31 -3.23471e-31 -2.1014e-31 -1.17466e-31 -4.96426e-32 -6.52315e-33 1.56134e-32 2.25851e-32 2.06074e-32 1.48997e-32 8.94154e-33 4.42533e-33 1.70133e-33 3.97331e-34 -5.63743e-35 -1.2513e-34 -7.98898e-35 -3.26523e-35 -8.18992e-36 -1.9528e-37 9.47806e-37 5.0219e-37 1.32566e-37 7.03239e-39 -9.74874e-39 -4.38231e-39 -7.63425e-40 8.82843e-41 8.53435e-41 1.94336e-41 -1.80549e-43 -1.27889e-42 -2.9134e-43 -0 0 0 0 0 0 0 0 0 0 0 0 0 0 0 0 0 0 0 0 0 0 0 0 0 0 0 0 0 0 0 0 0 0 0 0 0 0 0 0 0 0 0 0 0 0 0 0 0 0 0 0 0 0 0 0 0 0 0 0 0 0 
0 0 0 0 0 0 0 0 0 0 0 0 0 0 0 0 0 0 0 0 0 0 0 0 0 0 0 0 0 0 0 0 0 0 0 0 0 0 0 0 0 0 0 0 0 0 0 0 0 0 0 0 0 0 0 0 0 0 0 0 -0 -6.16961e-44 -7.60919e-43 -2.20872e-42 4.50793e-42 5.44201e-41 1.57451e-40 -1.3672e-40 -2.77476e-39 -1.00084e-38 -8.17683e-39 8.26239e-38 4.45796e-37 1.06297e-36 2.57667e-37 -8.45746e-36 -3.81119e-35 -9.5474e-35 -1.27737e-34 9.33874e-35 1.11651e-33 3.82211e-33 8.98454e-33 1.60341e-32 2.09327e-32 1.36852e-32 -2.32715e-32 -1.1422e-31 -2.85776e-31 -5.59309e-31 -9.42277e-31 -1.42185e-30 -1.96396e-30 -2.5192e-30 -3.03424e-30 -3.46509e-30 -3.78741e-30 -4.00028e-30 -4.12193e-30 -4.17933e-30 -4.19546e-30 -4.17933e-30 -4.12193e-30 -4.00028e-30 -3.78741e-30 -3.46509e-30 -3.03424e-30 -2.5192e-30 -1.96396e-30 -1.42185e-30 -9.42277e-31 -5.59309e-31 -2.85776e-31 -1.1422e-31 -2.32715e-32 1.36852e-32 2.09327e-32 1.60341e-32 8.98454e-33 3.82211e-33 1.11651e-33 9.33874e-35 -1.27737e-34 -9.5474e-35 -3.81119e-35 -8.45746e-36 2.57667e-37 1.06297e-36 4.45796e-37 8.26239e-38 -8.17683e-39 -1.00084e-38 -2.77476e-39 -1.3672e-40 1.57451e-40 5.44201e-41 4.50793e-42 -2.20872e-42 -7.60919e-43 -6.16961e-44 -0 0 0 0 0 0 0 0 0 0 0 0 0 0 0 0 0 0 0 0 0 0 0 0 0 0 0 0 0 0 0 0 0 0 0 0 0 0 0 0 0 0 0 0 0 0 0 0 0 0 0 0 0 0 0 0 0 0 0 0 
0 0 0 0 0 0 0 0 0 0 0 0 0 0 0 0 0 0 0 0 0 0 0 0 0 0 0 0 0 0 0 0 0 0 0 0 0 0 0 0 0 0 0 0 0 0 0 0 0 0 0 0 0 0 0 0 0 0 0 -0 -2.30848e-43 -1.70938e-42 -2.63552e-42 1.94751e-41 1.24382e-40 2.03757e-40 -1.05168e-39 -7.38717e-39 -1.67455e-38 2.52682e-38 3.1452e-37 1.0542e-36 1.09194e-36 -6.09517e-36 -3.65849e-35 -1.02245e-34 -1.333e-34 2.13765e-34 1.80557e-33 5.95663e-33 1.31615e-32 1.95325e-32 1.05887e-32 -4.57242e-32 -2.01768e-31 -5.21679e-31 -1.05633e-30 -1.80334e-30 -2.66371e-30 -3.41453e-30 -3.718e-30 -3.17719e-30 -1.43129e-30 1.73355e-30 6.29219e-30 1.19384e-29 1.81083e-29 2.40665e-29 2.90336e-29 3.23262e-29 3.34786e-29 3.23262e-29 2.90336e-29 2.40665e-29 1.81083e-29 1.19384e-29 6.29219e-30 1.73355e-30 -1.43129e-30 -3.17719e-30 -3.718e-30 -3.41453e-30 -2.66371e-30 -1.80334e-30 -1.05633e-30 -5.21679e-31 -2.01768e-31 -4.57242e-32 1.05887e-32 1.95325e-32 1.31615e-32 5.95663e-33 1.80557e-33 2.13765e-34 -1.333e-34 -1.02245e-34 -3.65849e-35 -6.09517e-36 1.09194e-36 1.0542e-36 3.1452e-37 2.52682e-38 -1.67455e-38 -7.38717e-39 -1.05168e-39 2.03757e-40 1.24382e-40 1.94751e-41 -2.63552e-42 -1.70938e-42 -2.30848e-43 -0 0 0 0 0 0 0 0 0 0 0 0 0 0 0 0 0 0 0 0 0 0 0 0 0 0 0 0 0 0 0 0 0 0 0 0 0 0 0 0 0 0 0 0 0 0 0 0 0 0 0 0 0 0 0 0 0 0 0 
0 0 0 0 0 0 0 0 0 0 0 0 0 0 0 0 0 0 0 0 0 0 0 0 0 0 0 0 0 0 0 0 0 0 0 0 0 0 0 0 0 0 0 0 0 0 0 0 0 0 0 0 0 0 0 0 0 0 -8.26206e-45 -6.32048e-43 -3.15335e-42 -6.60965e-43 5.55954e-41 2.38999e-40 5.76609e-41 -3.56329e-39 -1.57552e-38 -1.49385e-38 1.51855e-37 8.38024e-37 1.72331e-36 -2.25064e-36 -2.82476e-35 -9.84472e-35 -1.5536e-34 1.99634e-34 2.10212e-33 7.29914e-33 1.56764e-32 1.7726e-32 -1.913e-32 -1.64763e-31 -5.24096e-31 -1.19165e-30 -2.13987e-30 -3.04446e-30 -3.09605e-30 -8.90631e-31 5.49844e-30 1.82092e-29 3.90756e-29 6.90477e-29 1.07743e-28 1.53307e-28 2.02648e-28 2.5198e-28 2.97486e-28 3.35891e-28 3.64777e-28 3.82624e-28 3.8865e-28 3.82624e-28 3.64777e-28 3.35891e-28 2.97486e-28 2.5198e-28 2.02648e-28 1.53307e-28 1.07743e-28 6.90477e-29 3.90756e-29 1.82092e-29 5.49844e-30 -8.90631e-31 -3.09605e-30 -3.04446e-30 -2.13987e-30 -1.19165e-30 -5.24096e-31 -1.64763e-31 -1.913e-32 1.7726e-32 1.56764e-32 7.29914e-33 2.10212e-33 1.99634e-34 -1.5536e-34 -9.84472e-35 -2.82476e-35 -2.25064e-36 1.72331e-36 8.38024e-37 1.51855e-37 -1.49385e-38 -1.57552e-38 -3.56329e-39 5.76609e-41 2.38999e-40 5.55954e-41 -6.60965e-43 -3.15335e-42 -6.32048e-43 -8.26206e-45 0 0 0 0 0 0 0 0 0 0 0 0 0 0 0 0 0 0 0 0 0 0 0 0 0 0 0 0 0 0 0 0 0 0 0 0 0 0 0 0 0 0 0 0 0 0 0 0 0 0 0 0 0 0 0 0 0 
0 0 0 0 0 0 0 0 0 0 0 0 0 0 0 0 0 0 0 0 0 0 0 0 0 0 0 0 0 0 0 0 0 0 0 0 0 0 0 0 0 0 0 0 0 0 0 0 0 0 0 0 0 0 0 0 0 -7.72667e-44 -1.47083e-42 -5.1272e-42 7.87016e-42 1.29092e-40 3.81601e-40 -6.75486e-40 -9.08571e-39 -2.70258e-38 2.33742e-38 4.82811e-37 1.72323e-36 1.14855e-36 -1.58735e-35 -8.08819e-35 -1.7719e-34 4.78812e-35 1.85277e-33 7.46741e-33 1.67115e-32 1.48049e-32 -5.17116e-32 -2.98614e-31 -8.82109e-31 -1.85044e-30 -2.78854e-30 -2.25954e-30 2.77597e-30 1.71842e-29 4.7072e-29 9.81223e-29 1.73047e-28 2.68934e-28 3.75643e-28 4.76338e-28 5.50583e-28 5.79483e-28 5.5141e-28 4.66419e-28 3.37833e-28 1.90137e-28 5.37216e-29 -4.22241e-29 -7.67387e-29 -4.22241e-29 5.37216e-29 1.90137e-28 3.37833e-28 4.66419e-28 5.5141e-28 5.79483e-28 5.50583e-28 4.76338e-28 3.75643e-28 2.68934e-28 1.73047e-28 9.81223e-29 4.7072e-29 1.71842e-29 2.77597e-30 -2.25954e-30 -2.78854e-30 -1.85044e-30 -8.82109e-31 -2.98614e-31 -5.17116e-32 1.48049e-32 1.67115e-32 7.46741e-33 1.85277e-33 4.78812e-35 -1.7719e-34 -8.08819e-35 -1.58735e-35 1.14855e-36 1.72323e-36 4.82811e-37 2.33742e-38 -2.70258e-38 -9.08571e-39 -6.75486e-40 3.81601e-40 1.29092e-40 7.87016e-42 -5.1272e-42 -1.47083e-42 -7.72667e-44 0 0 0 0 0 0 0 0 0 0 0 0 0 0 0 0 0 0 0 0 0 0 0 0 0 0 0 0 0 0 0 0 0 0 0 0 0 0 0 0 0 0 0 0 0 0 0 0 0 0 0 0 0 0 0 0 
0 0 0 0 0 0 0 0 0 0 0 0 0 0 0 0 0 0 0 0 0 0 0 0 0 0 0 0 0 0 0 0 0 0 0 0 0 0 0 0 0 0 0 0 0 0 0 0 0 0 0 0 0 0 0 -0 -2.69559e-43 -2.87391e-42 -6.97535e-42 3.07062e-41 2.59187e-40 4.68638e-40 -2.74844e-39 -1.92562e-38 -3.42559e-38 1.58181e-37 1.16727e-36 2.66995e-36 -4.30982e-36 -5.19573e-35 -1.69808e-34 -1.42474e-34 1.17746e-33 6.43696e-33 1.66549e-32 1.58631e-32 -6.42851e-32 -3.81751e-31 -1.13325e-30 -2.22495e-30 -2.44684e-30 1.84842e-30 1.79827e-29 5.67495e-29 1.28969e-28 2.37573e-28 3.65937e-28 4.6592e-28 4.51365e-28 2.0285e-28 -4.13391e-28 -1.51474e-27 -3.16733e-27 -5.35767e-27 -7.98007e-27 -1.08445e-26 -1.37024e-26 -1.62837e-26 -1.83353e-26 -1.96537e-26 -2.01081e-26 -1.96537e-26 -1.83353e-26 -1.62837e-26 -1.37024e-26 -1.08445e-26 -7.98007e-27 -5.35767e-27 -3.16733e-27 -1.51474e-27 -4.13391e-28 2.0285e-28 4.51365e-28 4.6592e-28 3.65937e-28 2.37573e-28 1.28969e-28 5.67495e-29 1.79827e-29 1.84842e-30 -2.44684e-30 -2.22495e-30 -1.13325e-30 -3.81751e-31 -6.42851e-32 1.58631e-32 1.66549e-32 6.43696e-33 1.17746e-33 -1.42474e-34 -1.69808e-34 -5.19573e-35 -4.30982e-36 2.66995e-36 1.16727e-36 1.58181e-37 -3.42559e-38 -1.92562e-38 -2.74844e-39 4.68638e-40 2.59187e-40 3.07062e-41 -6.97535e-42 -2.87391e-42 -2.69559e-43 -0 0 0 0 0 0 0 0 0 0 0 0 0 0 0 0 0 0 0 0 0 0 0 0 0 0 0 0 0 0 0 0 0 0 0 0 0 0 0 0 0 0 0 0 0 0 0 0 0 0 0 0 0 0 0 
0 0 0 0 0 0 0 0 0 0 0 0 0 0 0 0 0 0 0 0 0 0 0 0 0 0 0 0 0 0 0 0 0 0 0 0 0 0 0 0 0 0 0 0 0 0 0 0 0 0 0 0 0 0 -1.38478e-45 -6.78542e-43 -5.11538e-42 -7.10254e-42 7.97426e-41 4.59376e-40 2.88652e-40 -7.36506e-39 -3.49554e-38 -1.77056e-38 4.92926e-37 2.31295e-36 2.4086e-36 -2.20945e-35 -1.24866e-34 -2.53238e-34 3.92184e-34 4.4748e-33 1.50319e-32 2.06968e-32 -4.79171e-32 -3.76594e-31 -1.2083e-30 -2.31867e-30 -1.55015e-30 7.64077e-30 3.81528e-29 1.06766e-28 2.21281e-28 3.52538e-28 3.9318e-28 1.16138e-28 -8.43638e-28 -2.95867e-27 -6.7164e-27 -1.2477e-26 -2.03223e-26 -2.99544e-26 -4.06949e-26 -5.1603e-26 -6.16873e-26 -7.01406e-26 -7.65203e-26 -8.08079e-26 -8.33287e-26 -8.45634e-26 -8.49215e-26 -8.45634e-26 -8.33287e-26 -8.08079e-26 -7.65203e-26 -7.01406e-26 -6.16873e-26 -5.1603e-26 -4.06949e-26 -2.99544e-26 -2.03223e-26 -1.2477e-26 -6.7164e-27 -2.95867e-27 -8.43638e-28 1.16138e-28 3.9318e-28 3.52538e-28 2.21281e-28 1.06766e-28 3.81528e-29 7.64077e-30 -1.55015e-30 -2.31867e-30 -1.2083e-30 -3.76594e-31 -4.79171e-32 2.06968e-32 1.50319e-32 4.4748e-33 3.92184e-34 -2.53238e-34 -1.24866e-34 -2.20945e-35 2.4086e-36 2.31295e-36 4.92926e-37 -1.77056e-38 -3.49554e-38 -7.36506e-39 2.88652e-40 4.59376e-40 7.97426e-41 -7.10254e-42 -5.11538e-42 -6.78542e-43 -1.38478e-45 0 0 0 0 0 0 0 0 0 0 0 0 0 0 0 0 0 0 0 0 0 0 0 0 0 0 0 0 0 0 0 0 0 0 0 0 0 0 0 0 0 0 0 0 0 0 0 0 0 0 0 0 0 
0 0 0 0 0 0 0 0 0 0 0 0 0 0 0 0 0 0 0 0 0 0 0 0 0 0 0 0 0 0 0 0 0 0 0 0 0 0 0 0 0 0 0 0 0 0 0 0 0 0 0 0 0 -2.91279e-44 -1.47027e-42 -8.41381e-42 -2.41623e-42 1.71226e-40 7.22217e-40 -5.71271e-40 -1.61326e-38 -5.43035e-38 6.37268e-38 1.17142e-36 3.79074e-36 -2.18456e-36 -6.40402e-35 -2.38088e-34 -1.6783e-34 2.22268e-33 1.1387e-32 2.41937e-32 -1.3565e-32 -2.89619e-31 -1.1095e-30 -2.28992e-30 -1.10611e-30 1.15094e-29 5.37908e-29 1.46045e-28 2.78201e-28 3.37894e-28 3.77822e-30 -1.35278e-27 -4.67167e-27 -1.10121e-26 -2.1107e-26 -3.47155e-26 -4.99713e-26 -6.3022e-26 -6.82513e-26 -5.92172e-26 -3.01804e-26 2.21538e-26 9.72088e-26 1.89888e-25 2.90963e-25 3.88456e-25 4.69681e-25 5.23505e-25 5.42342e-25 5.23505e-25 4.69681e-25 3.88456e-25 2.90963e-25 1.89888e-25 9.72088e-26 2.21538e-26 -3.01804e-26 -5.92172e-26 -6.82513e-26 -6.3022e-26 -4.99713e-26 -3.47155e-26 -2.1107e-26 -1.10121e-26 -4.67167e-27 -1.35278e-27 3.77822e-30 3.37894e-28 2.78201e-28 1.46045e-28 5.37908e-29 1.15094e-29 -1.10611e-30 -2.28992e-30 -1.1095e-30 -2.89619e-31 -1.3565e-32 2.41937e-32 1.1387e-32 2.22268e-33 -1.6783e-34 -2.38088e-34 -6.40402e-35 -2.18456e-36 3.79074e-36 1.17142e-36 6.37268e-38 -5.43035e-38 -1.61326e-38 -5.71271e-40 7.22217e-40 1.71226e-40 -2.41623e-42 -8.41381e-42 -1.47027e-42 -2.91279e-44 0 0 0 0 0 0 0 0 0 0 0 0 0 0 0 0 0 0 0 0 0 0 0 0 0 0 0 0 0 0 0 0 0 0 0 0 0 0 0 0 0 0 0 0 0 0 0 0 0 0 0 0 
0 0 0 0 0 0 0 0 0 0 0 0 0 0 0 0 0 0 0 0 0 0 0 0 0 0 0 0 0 0 0 0 0 0 0 0 0 0 0 0 0 0 0 0 0 0 0 0 0 0 0 0 -1.1391e-43 -2.77412e-42 -1.24745e-41 1.233e-41 3.24262e-40 9.96323e-40 -2.78779e-39 -3.07549e-38 -6.95374e-38 2.8024e-37 2.34288e-36 4.89255e-36 -1.70231e-35 -1.44101e-34 -3.55315e-34 4.72745e-34 6.56276e-33 2.19795e-32 1.79505e-32 -1.60719e-31 -8.65732e-31 -2.1642e-30 -1.56249e-30 1.10588e-29 5.78875e-29 1.61706e-28 2.87071e-28 2.00575e-28 -7.39844e-28 -3.74584e-27 -1.04402e-26 -2.20234e-26 -3.75248e-26 -5.12946e-26 -5.04791e-26 -1.37299e-26 8.75416e-26 2.84681e-25 6.04578e-25 1.06157e-24 1.65102e-24 2.34702e-24 3.10507e-24 3.86918e-24 4.58096e-24 5.18792e-24 5.6489e-24 5.93588e-24 6.03318e-24 5.93588e-24 5.6489e-24 5.18792e-24 4.58096e-24 3.86918e-24 3.10507e-24 2.34702e-24 1.65102e-24 1.06157e-24 6.04578e-25 2.84681e-25 8.75416e-26 -1.37299e-26 -5.04791e-26 -5.12946e-26 -3.75248e-26 -2.20234e-26 -1.04402e-26 -3.74584e-27 -7.39844e-28 2.00575e-28 2.87071e-28 1.61706e-28 5.78875e-29 1.10588e-29 -1.56249e-30 -2.1642e-30 -8.65732e-31 -1.60719e-31 1.79505e-32 2.19795e-32 6.56276e-33 4.72745e-34 -3.55315e-34 -1.44101e-34 -1.70231e-35 4.89255e-36 2.34288e-36 2.8024e-37 -6.95374e-38 -3.07549e-38 -2.78779e-39 9.96323e-40 3.24262e-40 1.233e-41 -1.24745e-41 -2.77412e-42 -1.1391e-43 0 0 0 0 0 0 0 0 0 0 0 0 0 0 0 0 0 0 0 0 0 0 0 0 0 0 0 0 0 0 0 0 0 0 0 0 0 0 0 0 0 0 0 0 0 0 0 0 0 0 0 
0 0 0 0 0 0 0 0 0 0 0 0 0 0 0 0 0 0 0 0 0 0 0 0 0 0 0 0 0 0 0 0 0 0 0 0 0 0 0 0 0 0 0 0 0 0 0 0 0 0 0 -3.04646e-43 -4.74636e-42 -1.69475e-41 4.43211e-41 5.55587e-40 1.15878e-39 -7.32104e-39 -5.23677e-38 -6.31613e-38 7.33294e-37 4.07848e-36 3.867e-36 -5.12548e-35 -2.70751e-34 -3.53902e-34 2.36416e-33 1.46361e-32 3.14373e-32 -4.31164e-32 -5.38583e-31 -1.82854e-30 -2.40141e-30 6.83722e-30 4.9753e-29 1.54244e-28 2.73123e-28 7.01882e-29 -1.4203e-27 -5.99996e-27 -1.57017e-26 -3.0365e-26 -4.26008e-26 -3.05459e-26 4.91192e-26 2.63347e-25 6.94994e-25 1.42236e-24 2.48841e-24 3.86841e-24 5.44945e-24 7.03424e-24 8.37518e-24 9.23333e-24 9.44609e-24 8.9819e-24 7.96298e-24 6.64491e-24 5.35864e-24 4.42855e-24 4.0899e-24 4.42855e-24 5.35864e-24 6.64491e-24 7.96298e-24 8.9819e-24 9.44609e-24 9.23333e-24 8.37518e-24 7.03424e-24 5.44945e-24 3.86841e-24 2.48841e-24 1.42236e-24 6.94994e-25 2.63347e-25 4.91192e-26 -3.05459e-26 -4.26008e-26 -3.0365e-26 -1.57017e-26 -5.99996e-27 -1.4203e-27 7.01882e-29 2.73123e-28 1.54244e-28 4.9753e-29 6.83722e-30 -2.40141e-30 -1.82854e-30 -5.38583e-31 -4.31164e-32 3.14373e-32 1.46361e-32 2.36416e-33 -3.53902e-34 -2.70751e-34 -5.12548e-35 3.867e-36 4.07848e-36 7.33294e-37 -6.31613e-38 -5.23677e-38 -7.32104e-39 1.15878e-39 5.55587e-40 4.43211e-41 -1.69475e-41 -4.74636e-42 -3.04646e-43 0 0 0 0 0 0 0 0 0 0 0 0 0 0 0 0 0 0 0 0 0 0 0 0 0 0 0 0 0 0 0 0 0 0 0 0 0 0 0 0 0 0 0 0 0 0 0 0 0 0 
0 0 0 0 0 0 0 0 0 0 0 0 0 0 0 0 0 0 0 0 0 0 0 0 0 0 0 0 0 0 0 0 0 0 0 0 0 0 0 0 0 0 0 0 0 0 0 0 0 -0 -6.28174e-43 -7.63837e-42 -2.06824e-41 1.03036e-40 8.74517e-40 9.91403e-40 -1.53547e-38 -8.0518e-38 -4.37299e-39 1.54652e-36 6.2334e-36 -2.55437e-36 -1.16426e-34 -4.32259e-34 3.12749e-35 6.49766e-33 2.65413e-32 2.4621e-32 -2.29957e-31 -1.2618e-30 -2.77082e-30 1.49377e-30 3.35978e-29 1.2875e-28 2.56891e-28 5.90421e-29 -1.62907e-27 -7.05737e-27 -1.83328e-26 -3.24175e-26 -3.03295e-26 3.84559e-26 2.69078e-25 7.9706e-25 1.75858e-24 3.20373e-24 4.97042e-24 6.55414e-24 7.03151e-24 5.09884e-24 -7.3903e-25 -1.18462e-23 -2.90722e-23 -5.24182e-23 -8.08569e-23 -1.1237e-22 -1.44198e-22 -1.73241e-22 -1.9651e-22 -2.11547e-22 -2.16744e-22 -2.11547e-22 -1.9651e-22 -1.73241e-22 -1.44198e-22 -1.1237e-22 -8.08569e-23 -5.24182e-23 -2.90722e-23 -1.18462e-23 -7.3903e-25 5.09884e-24 7.03151e-24 6.55414e-24 4.97042e-24 3.20373e-24 1.75858e-24 7.9706e-25 2.69078e-25 3.84559e-26 -3.03295e-26 -3.24175e-26 -1.83328e-26 -7.05737e-27 -1.62907e-27 5.90421e-29 2.56891e-28 1.2875e-28 3.35978e-29 1.49377e-30 -2.77082e-30 -1.2618e-30 -2.29957e-31 2.4621e-32 2.65413e-32 6.49766e-33 3.12749e-35 -4.32259e-34 -1.16426e-34 -2.55437e-36 6.2334e-36 1.54652e-36 -4.37299e-39 -8.0518e-38 -1.53547e-38 9.91403e-40 8.74517e-40 1.03036e-40 -2.06824e-41 -7.63837e-42 -6.28174e-43 -0 0 0 0 0 0 0 0 0 0 0 0 0 0 0 0 0 0 0 0 0 0 0 0 0 0 0 0 0 0 0 0 0 0 0 0 0 0 0 0 0 0 0 0 0 0 0 0 0 
0 0 0 0 0 0 0 0 0 0 0 0 0 0 0 0 0 0 0 0 0 0 0 0 0 0 0 0 0 0 0 0 0 0 0 0 0 0 0 0 0 0 0 0 0 0 0 0 -0 -1.14345e-42 -1.14233e-41 -2.20532e-41 1.98691e-40 1.27519e-39 1.6855e-40 -2.81311e-38 -1.11935e-37 1.52729e-37 2.84094e-36 8.26988e-36 -1.94375e-35 -2.23589e-34 -5.75367e-34 1.25209e-33 1.39345e-32 3.92224e-32 -2.9933e-32 -6.3901e-31 -2.30954e-30 -2.25149e-30 1.59418e-29 9.08684e-29 2.30685e-28 1.54233e-28 -1.29077e-27 -6.6034e-27 -1.80578e-26 -3.00464e-26 -1.10555e-26 1.22903e-25 5.25609e-25 1.38836e-24 2.80279e-24 4.47778e-24 5.32864e-24 3.05401e-24 -6.08976e-24 -2.70773e-23 -6.53169e-23 -1.2533e-22 -2.09239e-22 -3.15571e-22 -4.38892e-22 -5.70536e-22 -7.00275e-22 -8.18439e-22 -9.17749e-22 -9.9428e-22 -1.04727e-21 -1.07793e-21 -1.08792e-21 -1.07793e-21 -1.04727e-21 -9.9428e-22 -9.17749e-22 -8.18439e-22 -7.00275e-22 -5.70536e-22 -4.38892e-22 -3.15571e-22 -2.09239e-22 -1.2533e-22 -6.53169e-23 -2.70773e-23 -6.08976e-24 3.05401e-24 5.32864e-24 4.47778e-24 2.80279e-24 1.38836e-24 5.25609e-25 1.22903e-25 -1.10555e-26 -3.00464e-26 -1.80578e-26 -6.6034e-27 -1.29077e-27 1.54233e-28 2.30685e-28 9.08684e-29 1.59418e-29 -2.25149e-30 -2.30954e-30 -6.3901e-31 -2.9933e-32 3.92224e-32 1.39345e-32 1.25209e-33 -5.75367e-34 -2.23589e-34 -1.94375e-35 8.26988e-36 2.84094e-36 1.52729e-37 -1.11935e-37 -2.81311e-38 1.6855e-40 1.27519e-39 1.98691e-40 -2.20532e-41 -1.14233e-41 -1.14345e-42 -0 0 0 0 0 0 0 0 0 0 0 0 0 0 0 0 0 0 0 0 0 0 0 0 0 0 0 0 0 0 0 0 0 0 0 0 0 0 0 0 0 0 0 0 0 0 0 0 
0 0 0 0 0 0 0 0 0 0 0 0 0 0 0 0 0 0 0 0 0 0 0 0 0 0 0 0 0 0 0 0 0 0 0 0 0 0 0 0 0 0 0 0 0 0 0 -1.39588e-44 -1.94586e-42 -1.61867e-41 -1.86448e-41 3.41245e-40 1.72932e-39 -1.73268e-39 -4.66896e-38 -1.39402e-37 4.67572e-37 4.69424e-36 9.08269e-36 -5.34879e-35 -3.78011e-34 -5.8153e-34 3.94698e-33 2.52774e-32 4.37533e-32 -1.83355e-31 -1.35785e-30 -3.28989e-30 2.82905e-30 4.99124e-29 1.80077e-28 2.52585e-28 -6.51832e-28 -5.00859e-27 -1.56786e-26 -2.70578e-26 -8.29144e-28 1.72465e-25 6.93199e-25 1.76642e-24 3.27441e-24 4.09454e-24 1.10621e-24 -1.177e-23 -4.38194e-23 -1.06228e-22 -2.08659e-22 -3.53931e-22 -5.32168e-22 -7.1677e-22 -8.64717e-22 -9.22796e-22 -8.39279e-22 -5.78413e-22 -1.33497e-22 4.65685e-22 1.15393e-21 1.84033e-21 2.42482e-21 2.81734e-21 2.95558e-21 2.81734e-21 2.42482e-21 1.84033e-21 1.15393e-21 4.65685e-22 -1.33497e-22 -5.78413e-22 -8.39279e-22 -9.22796e-22 -8.64717e-22 -7.1677e-22 -5.32168e-22 -3.53931e-22 -2.08659e-22 -1.06228e-22 -4.38194e-23 -1.177e-23 1.10621e-24 4.09454e-24 3.27441e-24 1.76642e-24 6.93199e-25 1.72465e-25 -8.29144e-28 -2.70578e-26 -1.56786e-26 -5.00859e-27 -6.51832e-28 2.52585e-28 1.80077e-28 4.99124e-29 2.82905e-30 -3.28989e-30 -1.35785e-30 -1.83355e-31 4.37533e-32 2.52774e-32 3.94698e-33 -5.8153e-34 -3.78011e-34 -5.34879e-35 9.08269e-36 4.69424e-36 4.67572e-37 -1.39402e-37 -4.66896e-38 -1.73268e-39 1.72932e-39 3.41245e-40 -1.86448e-41 -1.61867e-41 -1.94586e-42 -1.39588e-44 0 0 0 0 0 0 0 0 0 0 0 0 0 0 0 0 0 0 0 0 0 0 0 0 0 0 0 0 0 0 0 0 0 0 0 0 0 0 0 0 0 0 0 0 0 0 
0 0 0 0 0 0 0 0 0 0 0 0 0 0 0 0 0 0 0 0 0 0 0 0 0 0 0 0 0 0 0 0 0 0 0 0 0 0 0 0 0 0 0 0 0 0 -4.33117e-44 -3.1394e-42 -2.18458e-41 -8.12583e-42 5.3804e-40 2.18259e-39 -5.19574e-39 -7.15481e-38 -1.51125e-37 1.00719e-36 7.09003e-36 6.88853e-36 -1.12261e-34 -5.71992e-34 -2.48575e-34 8.86312e-33 3.98331e-32 2.26828e-32 -5.02618e-31 -2.39224e-30 -3.13469e-30 1.75002e-29 1.11178e-28 2.68306e-28 -5.99689e-29 -2.95489e-27 -1.19353e-26 -2.44303e-26 -5.23753e-27 1.6268e-25 7.06525e-25 1.82434e-24 3.11405e-24 2.31951e-24 -6.50745e-24 -3.45268e-23 -9.73546e-23 -2.09395e-22 -3.71195e-22 -5.50239e-22 -6.59717e-22 -5.43952e-22 1.90409e-23 1.29034e-21 3.51869e-21 6.87532e-21 1.13935e-20 1.69327e-20 2.31791e-20 2.96848e-20 3.59326e-20 4.1408e-20 4.56623e-20 4.83548e-20 4.92757e-20 4.83548e-20 4.56623e-20 4.1408e-20 3.59326e-20 2.96848e-20 2.31791e-20 1.69327e-20 1.13935e-20 6.87532e-21 3.51869e-21 1.29034e-21 1.90409e-23 -5.43952e-22 -6.59717e-22 -5.50239e-22 -3.71195e-22 -2.09395e-22 -9.73546e-23 -3.45268e-23 -6.50745e-24 2.31951e-24 3.11405e-24 1.82434e-24 7.06525e-25 1.6268e-25 -5.23753e-27 -2.44303e-26 -1.19353e-26 -2.95489e-27 -5.99689e-29 2.68306e-28 1.11178e-28 1.75002e-29 -3.13469e-30 -2.39224e-30 -5.02618e-31 2.26828e-32 3.98331e-32 8.86312e-33 -2.48575e-34 -5.71992e-34 -1.12261e-34 6.88853e-36 7.09003e-36 1.00719e-36 -1.51125e-37 -7.15481e-38 -5.19574e-39 2.18259e-39 5.3804e-40 -8.12583e-42 -2.18458e-41 -3.1394e-42 -4.33117e-44 0 0 0 0 0 0 0 0 0 0 0 0 0 0 0 0 0 0 0 0 0 0 0 0 0 0 0 0 0 0 0 0 0 0 0 0 0 0 0 0 0 0 0 0 0 
0 0 0 0 0 0 0 0 0 0 0 0 0 0 0 0 0 0 0 0 0 0 0 0 0 0 0 0 0 0 0 0 0 0 0 0 0 0 0 0 0 0 0 0 0 -1.02072e-43 -4.65477e-42 -2.80475e-41 1.25031e-41 7.92521e-40 2.55636e-39 -1.07022e-38 -1.02404e-37 -1.3097e-37 1.83613e-36 9.86901e-36 -7.57781e-37 -2.02712e-34 -7.77305e-34 7.1257e-34 1.66828e-32 5.45982e-32 -5.13513e-32 -1.05543e-30 -3.55723e-30 1.70363e-31 4.80741e-29 1.98115e-28 2.56478e-28 -1.14856e-27 -7.55689e-27 -2.05349e-26 -1.66285e-26 1.07601e-25 5.85099e-25 1.63398e-24 2.70454e-24 6.43875e-25 -1.30848e-23 -5.42283e-23 -1.41971e-22 -2.82635e-22 -4.34726e-22 -4.55702e-22 -4.34303e-23 1.29997e-21 4.24578e-21 9.52945e-21 1.77549e-20 2.91554e-20 4.3393e-20 5.9487e-20 7.5936e-20 9.10255e-20 1.03241e-19 1.11662e-19 1.16188e-19 1.17536e-19 1.16978e-19 1.15917e-19 1.15429e-19 1.15917e-19 1.16978e-19 1.17536e-19 1.16188e-19 1.11662e-19 1.03241e-19 9.10255e-20 7.5936e-20 5.9487e-20 4.3393e-20 2.91554e-20 1.77549e-20 9.52945e-21 4.24578e-21 1.29997e-21 -4.34303e-23 -4.55702e-22 -4.34726e-22 -2.82635e-22 -1.41971e-22 -5.42283e-23 -1.30848e-23 6.43875e-25 2.70454e-24 1.63398e-24 5.85099e-25 1.07601e-25 -1.66285e-26 -2.05349e-26 -7.55689e-27 -1.14856e-27 2.56478e-28 1.98115e-28 4.80741e-29 1.70363e-31 -3.55723e-30 -1.05543e-30 -5.13513e-32 5.45982e-32 1.66828e-32 7.1257e-34 -7.77305e-34 -2.02712e-34 -7.57781e-37 9.86901e-36 1.83613e-36 -1.3097e-37 -1.02404e-37 -1.07022e-38 2.55636e-39 7.92521e-40 1.25031e-41 -2.80475e-41 -4.65477e-42 -1.02072e-43 0 0 0 0 0 0 0 0 0 0 0 0 0 0 0 0 0 0 0 0 0 0 0 0 0 0 0 0 0 0 0 0 0 0 0 0 0 0 0 0 0 0 0 0 
0 0 0 0 0 0 0 0 0 0 0 0 0 0 0 0 0 0 0 0 0 0 0 0 0 0 0 0 0 0 0 0 0 0 0 0 0 0 0 0 0 0 0 0 -1.90289e-43 -6.50619e-42 -3.42701e-41 4.55965e-41 1.10234e-39 2.75289e-39 -1.86557e-38 -1.37946e-37 -5.9745e-38 3.00391e-36 1.26972e-35 -1.67811e-35 -3.29292e-34 -9.39543e-34 2.65829e-33 2.77667e-32 6.3338e-32 -2.14438e-31 -1.88244e-30 -4.35395e-30 9.6597e-30 1.00082e-28 2.874e-28 -4.87174e-29 -3.58298e-27 -1.45166e-26 -2.38372e-26 4.13157e-26 3.92485e-25 1.30115e-24 2.34541e-24 2.14712e-25 -1.49528e-23 -6.17014e-23 -1.59131e-22 -2.93848e-22 -3.47661e-22 1.33553e-23 1.45385e-21 5.00808e-21 1.19293e-20 2.32504e-20 3.90454e-20 5.75426e-20 7.44076e-20 8.26028e-20 7.31434e-20 3.6797e-20 -3.3581e-20 -1.40696e-19 -2.81162e-19 -4.45091e-19 -6.17106e-19 -7.78596e-19 -9.10662e-19 -9.97155e-19 -1.02725e-18 -9.97155e-19 -9.10662e-19 -7.78596e-19 -6.17106e-19 -4.45091e-19 -2.81162e-19 -1.40696e-19 -3.3581e-20 3.6797e-20 7.31434e-20 8.26028e-20 7.44076e-20 5.75426e-20 3.90454e-20 2.32504e-20 1.19293e-20 5.00808e-21 1.45385e-21 1.33553e-23 -3.47661e-22 -2.93848e-22 -1.59131e-22 -6.17014e-23 -1.49528e-23 2.14712e-25 2.34541e-24 1.30115e-24 3.92485e-25 4.13157e-26 -2.38372e-26 -1.45166e-26 -3.58298e-27 -4.87174e-29 2.874e-28 1.00082e-28 9.6597e-30 -4.35395e-30 -1.88244e-30 -2.14438e-31 6.3338e-32 2.77667e-32 2.65829e-33 -9.39543e-34 -3.29292e-34 -1.67811e-35 1.26972e-35 3.00391e-36 -5.9745e-38 -1.37946e-37 -1.86557e-38 2.75289e-39 1.10234e-39 4.55965e-41 -3.42701e-41 -6.50619e-42 -1.90289e-43 0 0 0 0 0 0 0 0 0 0 0 0 0 0 0 0 0 0 0 0 0 0 0 0 0 0 0 0 0 0 0 0 0 0 0 0 0 0 0 0 0 0 0 
0 0 0 0 0 0 0 0 0 0 0 0 0 0 0 0 0 0 0 0 0 0 0 0 0 0 0 0 0 0 0 0 0 0 0 0 0 0 0 0 0 0 0 -3.44386e-43 -8.66845e-42 -4.02428e-41 9.26636e-41 1.45965e-39 2.6688e-39 -2.93079e-38 -1.75843e-37 8.25648e-38 4.53293e-36 1.50655e-35 -4.42438e-35 -4.92007e-34 -9.76667e-34 5.96776e-33 4.18642e-32 5.61053e-32 -5.06811e-31 -2.9602e-30 -3.87205e-30 2.9101e-29 1.74675e-28 3.20385e-28 -9.39741e-28 -7.84502e-27 -2.19216e-26 -6.34702e-27 1.98531e-25 8.99082e-25 2.00519e-24 8.918e-25 -1.18943e-23 -5.57574e-23 -1.49241e-22 -2.60211e-22 -1.89372e-22 6.11598e-22 3.20698e-21 9.1268e-21 1.97868e-20 3.50694e-20 5.0984e-20 5.68132e-20 3.27692e-20 -5.03918e-20 -2.28499e-19 -5.3747e-19 -1.0043e-18 -1.63803e-18 -2.42377e-18 -3.32208e-18 -4.2743e-18 -5.21222e-18 -6.0689e-18 -6.78762e-18 -7.32655e-18 -7.65911e-18 -7.77137e-18 -7.65911e-18 -7.32655e-18 -6.78762e-18 -6.0689e-18 -5.21222e-18 -4.2743e-18 -3.32208e-18 -2.42377e-18 -1.63803e-18 -1.0043e-18 -5.3747e-19 -2.28499e-19 -5.03918e-20 3.27692e-20 5.68132e-20 5.0984e-20 3.50694e-20 1.97868e-20 9.1268e-21 3.20698e-21 6.11598e-22 -1.89372e-22 -2.60211e-22 -1.49241e-22 -5.57574e-23 -1.18943e-23 8.918e-25 2.00519e-24 8.99082e-25 1.98531e-25 -6.34702e-27 -2.19216e-26 -7.84502e-27 -9.39741e-28 3.20385e-28 1.74675e-28 2.9101e-29 -3.87205e-30 -2.9602e-30 -5.06811e-31 5.61053e-32 4.18642e-32 5.96776e-33 -9.76667e-34 -4.92007e-34 -4.42438e-35 1.50655e-35 4.53293e-36 8.25648e-38 -1.75843e-37 -2.93079e-38 2.6688e-39 1.45965e-39 9.26636e-41 -4.02428e-41 -8.66845e-42 -3.44386e-43 0 0 0 0 0 0 0 0 0 0 0 0 0 0 0 0 0 0 0 0 0 0 0 0 0 0 0 0 0 0 0 0 0 0 0 0 0 0 0 0 0 0 
0 0 0 0 0 0 0 0 0 0 0 0 0 0 0 0 0 0 0 0 0 0 0 0 0 0 0 0 0 0 0 0 0 0 0 0 0 0 0 0 0 0 -5.33604e-43 -1.13149e-41 -4.55034e-41 1.54244e-40 1.85116e-39 2.20948e-39 -4.27049e-38 -2.12956e-37 3.1402e-37 6.40991e-36 1.63255e-35 -8.59025e-35 -6.84994e-34 -7.8328e-34 1.09796e-32 5.78646e-32 1.94893e-32 -9.65023e-31 -4.16297e-30 -7.63364e-31 6.2259e-29 2.63975e-28 1.93131e-28 -2.76987e-27 -1.39341e-26 -2.44497e-26 5.70603e-26 5.03046e-25 1.54119e-24 1.72626e-24 -6.3964e-24 -4.1173e-23 -1.2306e-22 -2.17399e-22 -8.27633e-23 9.7869e-22 4.32204e-21 1.16935e-20 2.37867e-20 3.68424e-20 3.70094e-20 -6.53053e-21 -1.46795e-19 -4.58087e-19 -1.02448e-18 -1.91608e-18 -3.15696e-18 -4.69484e-18 -6.38609e-18 -8.00731e-18 -9.29686e-18 -1.00182e-17 -1.00271e-17 -9.32186e-18 -8.05778e-18 -6.52091e-18 -5.06479e-18 -4.02805e-18 -3.65318e-18 -4.02805e-18 -5.06479e-18 -6.52091e-18 -8.05778e-18 -9.32186e-18 -1.00271e-17 -1.00182e-17 -9.29686e-18 -8.00731e-18 -6.38609e-18 -4.69484e-18 -3.15696e-18 -1.91608e-18 -1.02448e-18 -4.58087e-19 -1.46795e-19 -6.53053e-21 3.70094e-20 3.68424e-20 2.37867e-20 1.16935e-20 4.32204e-21 9.7869e-22 -8.27633e-23 -2.17399e-22 -1.2306e-22 -4.1173e-23 -6.3964e-24 1.72626e-24 1.54119e-24 5.03046e-25 5.70603e-26 -2.44497e-26 -1.39341e-26 -2.76987e-27 1.93131e-28 2.63975e-28 6.2259e-29 -7.63364e-31 -4.16297e-30 -9.65023e-31 1.94893e-32 5.78646e-32 1.09796e-32 -7.8328e-34 -6.84994e-34 -8.59025e-35 1.63255e-35 6.40991e-36 3.1402e-37 -2.12956e-37 -4.27049e-38 2.20948e-39 1.85116e-39 1.54244e-40 -4.55034e-41 -1.13149e-41 -5.33604e-43 0 0 0 0 0 0 0 0 0 0 0 0 0 0 0 0 0 0 0 0 0 0 0 0 0 0 0 0 0 0 0 0 0 0 0 0 0 0 0 0 0 