<?xml version="1.0"?>
<VTKFile type="ImageData" version="0.1" byte_order="LittleEndian">
<ImageData WholeExtent="0 199 0 199 0 0" Origin="0 0 0" Spacing="15 15 0">
<Piece Extent="0 199 0 199 0 0">
<PointData Scalars="Amplitude">
<DataArray type="Float32" Name="Amplitude" format="ascii">
0 0 0 0 0 0 0 0 0 0 0 0 0 0 0 0 0 0 0 0 0 0 0 0 0 0 0 0 0 0 0 0 0 0 0 0 0 0 0 0 0 0 0 0 0 0 0 0 0 0 0 0 0 0 0 0 0 0 0 0 0 0 0 0 0 0 0 0 0 0 0 0 0 0 0 0 0 0 0 0 0 0 0 0 0 0 0 0 0 0 0 0 0 0 0 0 0 0 0 0 0 0 0 0 0 0 0 0 0 0 0 0 0 0 0 0 0 0 0 0 0 0 0 0 0 0 0 0 0 0 0 0 0 0 0 0 0 0 0 0 0 0 0 0 0 0 0 0 0 0 0 0 0 0 0 0 0 0 0 0 0 0 0 0 0 0 0 0 0 0 0 0 0 0 0 0 0 0 0 0 0 0 0 0 0 0 0 0 0 0 0 0 0 0 0 0 0 0 0 0 
0 0 0 0 0 0 0 0 0 0 0 0 0 0 0 0 0 0 0 0 0 0 0 0 0 0 0 0 0 0 0 0 0 0 0 0 0 0 0 0 0 0 0 0 0 0 0 0 0 0 0 0 0 0 0 0 0 0 0 0 0 0 0 0 0 0 0 0 0 0 0 0 0 0 0 0 0 0 0 0 0 0 0 0 0 0 0 0 0 0 0 0 0 0 0 0 0 0 0 0 0 0 0 0 0 0 0 0 0 0 0 0 0 0 0 0 0 0 0 0 0 0 0 0 0 0 0 0 0 0 0 0 0 0 0 0 0 0 0 0 0 0 0 0 0 0 0 0 0 0 0 0 0 0 0 0 0 0 0 0 0 0 0 0 0 0 0 0 0 0 0 0 0 0 0 0 0 0 0 0 0 0 0 0 0 0 0 0 0 0 0 0 0 0 0 0 0 0 0 0 
0 0 0 0 0 0 0 0 0 0 0 0 0 0 0 0 0 0 0 0 0 0 0 0 0 0 0 0 0 0 0 0 0 0 0 0 0 0 0 0 0 0 0 0 0 0 0 0 0 0 0 0 0 0 0 0 0 0 0 0 0 0 0 0 0 0 0 0 0 0 0 0 0 0 0 0 0 0 0 0 0 0 0 0 0 0 0 0 0 0 0 -0 0 0 0 0 0 0 0 1.35716e-45 1.35716e-45 1.35716e-45 0 0 0 0 0 0 0 -0 0 0 0 0 0 0 0 0 0 0 0 0 0 0 0 0 0 0 0 0 0 0 0 0 0 0 0 0 0 0 0 0 0 0 0 0 0 0 0 0 0 0 0 0 0 0 0 0 0 0 0 0 0 0 0 0 0 0 0 0 0 0 0 0 0 0 0 0 0 0 0 0 0 0 0 0 0 0 0 0 0 0 0 0 0 0 0 0 0 0 
0 0 0 0 0 0 0 0 0 0 0 0 0 0 0 0 0 0 0 0 0 0 0 0 0 0 0 0 0 0 0 0 0 0 0 0 0 0 0 0 0 0 0 0 0 0 0 0 0 0 0 0 0 0 0 0 0 0 0 0 0 0 0 0 0 0 0 0 0 0 0 0 0 0 0 0 0 0 0 0 0 0 0 0 0 0 0 0 0 0 0 1.82431e-45 2.32033e-44 8.40297e-44 2.24693e-43 4.28e-43 7.14134e-43 1.02622e-42 1.31638e-42 1.50276e-42 1.57225e-42 1.50276e-42 1.31638e-42 1.02622e-42 7.14134e-43 4.28e-43 2.24693e-43 8.40297e-44 2.32033e-44 1.82431e-45 0 0 0 0 0 0 0 0 0 0 0 0 0 0 0 0 0 0 0 0 0 0 0 0 0 0 0 0 0 0 0 0 0 0 0 0 0 0 0 0 0 0 0 0 0 0 0 0 0 0 0 0 0 0 0 0 0 0 0 0 0 0 0 0 0 0 0 0 0 0 0 0 0 0 0 0 0 0 0 0 0 0 0 0 0 0 0 0 0 0 
0 0 0 0 0 0 0 0 0 0 0 0 0 0 0 0 0 0 0 0 0 0 0 0 0 0 0 0 0 0 0 0 0 0 0 0 0 0 0 0 0 0 0 0 0 0 0 0 0 0 0 0 0 0 0 0 0 0 0 0 0 0 0 0 0 0 0 0 0 0 0 0 0 0 0 0 0 0 0 0 0 0 0 0 0 -0 -0 -0 -0 -0 0 4.22966e-44 2.82432e-43 8.10457e-43 1.80374e-42 3.15723e-42 4.8259e-42 6.53414e-42 8.01861e-42 9.04192e-42 9.38029e-42 9.04192e-42 8.01861e-42 6.53414e-42 4.8259e-42 3.15723e-42 1.80374e-42 8.10457e-43 2.82432e-43 4.22966e-44 0 -0 -0 -0 -0 -0 0 0 0 0 0 0 0 0 0 0 0 0 0 0 0 0 0 0 0 0 0 0 0 0 0 0 0 0 0 0 0 0 0 0 0 0 0 0 0 0 0 0 0 0 0 0 0 0 0 0 0 0 0 0 0 0 0 0 0 0 0 0 0 0 0 0 0 0 0 0 0 0 0 0 0 0 0 0 0 0 0 0 0 0 
0 0 0 0 0 0 0 0 0 0 0 0 0 0 0 0 0 0 0 0 0 0 0 0 0 0 0 0 0 0 0 0 0 0 0 0 0 0 0 0 0 0 0 0 0 0 0 0 0 0 0 0 0 0 0 0 0 0 0 0 0 0 0 0 0 0 0 0 0 0 0 0 0 0 0 0 0 0 0 0 0 0 -0 -0 -0 -0 -0 1.36779e-44 2.43467e-43 1.22691e-42 3.74365e-42 8.42151e-42 1.5772e-41 2.56065e-41 3.70152e-41 4.86388e-41 5.91612e-41 6.74801e-41 7.32262e-41 7.6457e-41 7.74965e-41 7.6457e-41 7.32262e-41 6.74801e-41 5.91612e-41 4.86388e-41 3.70152e-41 2.56065e-41 1.5772e-41 8.42151e-42 3.74365e-42 1.22691e-42 2.43467e-43 1.36779e-44 -0 -0 -0 -0 -0 0 0 0 0 0 0 0 0 0 0 0 0 0 0 0 0 0 0 0 0 0 0 0 0 0 0 0 0 0 0 0 0 0 0 0 0 0 0 0 0 0 0 0 0 0 0 0 0 0 0 0 0 0 0 0 0 0 0 0 0 0 0 0 0 0 0 0 0 0 0 0 0 0 0 0 0 0 0 0 0 0 
0 0 0 0 0 0 0 0 0 0 0 0 0 0 0 0 0 0 0 0 0 0 0 0 0 0 0 0 0 0 0 0 0 0 0 0 0 0 0 0 0 0 0 0 0 0 0 0 0 0 0 0 0 0 0 0 0 0 0 0 0 0 0 0 0 0 0 0 0 0 0 0 0 0 0 0 0 0 0 0 -0 -0 -0 -0 0 1.78233e-43 1.38748e-42 5.20304e-42 1.37884e-41 2.85351e-41 4.82807e-41 6.756e-41 7.64442e-41 6.27655e-41 1.63728e-41 -6.57626e-41 -1.76659e-40 -2.99514e-40 -4.11605e-40 -4.90131e-40 -5.18337e-40 -4.90131e-40 -4.11605e-40 -2.99514e-40 -1.76659e-40 -6.57626e-41 1.63728e-41 6.27655e-41 7.64442e-41 6.756e-41 4.82807e-41 2.85351e-41 1.37884e-41 5.20304e-42 1.38748e-42 1.78233e-43 0 -0 -0 -0 -0 0 0 0 0 0 0 0 0 0 0 0 0 0 0 0 0 0 0 0 0 0 0 0 0 0 0 0 0 0 0 0 0 0 0 0 0 0 0 0 0 0 0 0 0 0 0 0 0 0 0 0 0 0 0 0 0 0 0 0 0 0 0 0 0 0 0 0 0 0 0 0 0 0 0 0 0 0 0 0 
0 0 0 0 0 0 0 0 0 0 0 0 0 0 0 0 0 0 0 0 0 0 0 0 0 0 0 0 0 0 0 0 0 0 0 0 0 0 0 0 0 0 0 0 0 0 0 0 0 0 0 0 0 0 0 0 0 0 0 0 0 0 0 0 0 0 0 0 0 0 0 0 0 0 0 0 0 0 0 -0 -0 -0 4.12229e-45 4.50704e-43 3.01477e-42 1.09942e-41 2.75933e-41 5.09062e-41 6.46623e-41 2.8606e-41 -1.23748e-40 -4.73114e-40 -1.08742e-39 -1.99038e-39 -3.14083e-39 -4.43445e-39 -5.72906e-39 -6.88094e-39 -7.77452e-39 -8.33523e-39 -8.52578e-39 -8.33523e-39 -7.77452e-39 -6.88094e-39 -5.72906e-39 -4.43445e-39 -3.14083e-39 -1.99038e-39 -1.08742e-39 -4.73114e-40 -1.23748e-40 2.8606e-41 6.46623e-41 5.09062e-41 2.75933e-41 1.09942e-41 3.01477e-42 4.50704e-43 4.12229e-45 -0 -0 -0 0 0 0 0 0 0 0 0 0 0 0 0 0 0 0 0 0 0 0 0 0 0 0 0 0 0 0 0 0 0 0 0 0 0 0 0 0 0 0 0 0 0 0 0 0 0 0 0 0 0 0 0 0 0 0 0 0 0 0 0 0 0 0 0 0 0 0 0 0 0 0 0 0 0 0 0 0 0 
0 0 0 0 0 0 0 0 0 0 0 0 0 0 0 0 0 0 0 0 0 0 0 0 0 0 0 0 0 0 0 0 0 0 0 0 0 0 0 0 0 0 0 0 0 0 0 0 0 0 0 0 0 0 0 0 0 0 0 0 0 0 0 0 0 0 0 0 0 0 0 0 0 0 0 0 0 -0 -0 -0 4.13103e-45 5.08117e-43 4.05254e-42 1.54569e-41 3.75731e-41 5.58956e-41 8.00456e-42 -2.50398e-40 -9.49558e-40 -2.34098e-39 -4.55115e-39 -7.40519e-39 -1.03273e-38 -1.24217e-38 -1.27537e-38 -1.07365e-38 -6.44991e-39 -7.32363e-40 5.01809e-39 9.26553e-39 1.08287e-38 9.26553e-39 5.01809e-39 -7.32363e-40 -6.44991e-39 -1.07365e-38 -1.27537e-38 -1.24217e-38 -1.03273e-38 -7.40519e-39 -4.55115e-39 -2.34098e-39 -9.49558e-40 -2.50398e-40 8.00456e-42 5.58956e-41 3.75731e-41 1.54569e-41 4.05254e-42 5.08117e-43 4.13103e-45 -0 -0 -0 0 0 0 0 0 0 0 0 0 0 0 0 0 0 0 0 0 0 0 0 0 0 0 0 0 0 0 0 0 0 0 0 0 0 0 0 0 0 0 0 0 0 0 0 0 0 0 0 0 0 0 0 0 0 0 0 0 0 0 0 0 0 0 0 0 0 0 0 0 0 0 0 0 0 0 0 
0 0 0 0 0 0 0 0 0 0 0 0 0 0 0 0 0 0 0 0 0 0 0 0 0 0 0 0 0 0 0 0 0 0 0 0 0 0 0 0 0 0 0 0 0 0 0 0 0 0 0 0 0 0 0 0 0 0 0 0 0 0 0 0 0 0 0 0 0 0 0 0 0 0 0 0 -0 -0 0 3.61498e-43 3.8316e-42 1.6582e-41 4.12107e-41 4.53114e-41 -1.06823e-40 -7.32819e-40 -2.30634e-39 -5.14578e-39 -8.70296e-39 -1.0626e-38 -6.1423e-39 1.15482e-38 4.95374e-38 1.12557e-37 2.00508e-37 3.07362e-37 4.21989e-37 5.30532e-37 6.19319e-37 6.77285e-37 6.97401e-37 6.77285e-37 6.19319e-37 5.30532e-37 4.21989e-37 3.07362e-37 2.00508e-37 1.12557e-37 4.95374e-38 1.15482e-38 -6.1423e-39 -1.0626e-38 -8.70296e-39 -5.14578e-39 -2.30634e-39 -7.32819e-40 -1.06823e-40 4.53114e-41 4.12107e-41 1.6582e-41 3.8316e-42 3.61498e-43 0 -0 -0 0 0 0 0 0 0 0 0 0 0 0 0 0 0 0 0 0 0 0 0 0 0 0 0 0 0 0 0 0 0 0 0 0 0 0 0 0 0 0 0 0 0 0 0 0 0 0 0 0 0 0 0 0 0 0 0 0 0 0 0 0 0 0 0 0 0 0 0 0 0 0 0 0 0 0 
0 0 0 0 0 0 0 0 0 0 0 0 0 0 0 0 0 0 0 0 0 0 0 0 0 0 0 0 0 0 0 0 0 0 0 0 0 0 0 0 0 0 0 0 0 0 0 0 0 0 0 0 0 0 0 0 0 0 0 0 0 0 0 0 0 0 0 0 0 0 0 0 0 0 -0 -0 -0 1.14735e-43 2.57947e-42 1.44248e-41 4.0825e-41 4.13572e-41 -1.83664e-40 -1.13273e-39 -3.48071e-39 -7.0929e-39 -8.60099e-39 2.11671e-39 4.44393e-38 1.45063e-37 3.29223e-37 6.06748e-37 9.59537e-37 1.33892e-36 1.6777e-36 1.91373e-36 2.01482e-36 1.99272e-36 1.89886e-36 1.80288e-36 1.76331e-36 1.80288e-36 1.89886e-36 1.99272e-36 2.01482e-36 1.91373e-36 1.6777e-36 1.33892e-36 9.59537e-37 6.06748e-37 3.29223e-37 1.45063e-37 4.44393e-38 2.11671e-39 -8.60099e-39 -7.0929e-39 -3.48071e-39 -1.13273e-39 -1.83664e-40 4.13572e-41 4.0825e-41 1.44248e-41 2.57947e-42 1.14735e-43 -0 -0 -0 0 0 0 0 0 0 0 0 0 0 0 0 0 0 0 0 0 0 0 0 0 0 0 0 0 0 0 0 0 0 0 0 0 0 0 0 0 0 0 0 0 0 0 0 0 0 0 0 0 0 0 0 0 0 0 0 0 0 0 0 0 0 0 0 0 0 0 0 0 0 0 0 0 
0 0 0 0 0 0 0 0 0 0 0 0 0 0 0 0 0 0 0 0 0 0 0 0 0 0 0 0 0 0 0 0 0 0 0 0 0 0 0 0 0 0 0 0 0 0 0 0 0 0 0 0 0 0 0 0 0 0 0 0 0 0 0 0 0 0 0 0 0 0 0 0 0 -0 -4.15434e-45 -1.66174e-44 1.1189e-42 1.00092e-41 3.67451e-41 5.24084e-41 -1.57783e-40 -1.21537e-39 -3.95093e-39 -7.40646e-39 -3.23885e-39 3.31446e-38 1.4818e-37 3.98545e-37 8.08614e-37 1.29935e-36 1.61943e-36 1.33021e-36 -1.14004e-37 -3.19372e-36 -8.11925e-36 -1.46807e-35 -2.22226e-35 -2.97576e-35 -3.61765e-35 -4.0485e-35 -4.20015e-35 -4.0485e-35 -3.61765e-35 -2.97576e-35 -2.22226e-35 -1.46807e-35 -8.11925e-36 -3.19372e-36 -1.14004e-37 1.33021e-36 1.61943e-36 1.29935e-36 8.08614e-37 3.98545e-37 1.4818e-37 3.31446e-38 -3.23885e-39 -7.40646e-39 -3.95093e-39 -1.21537e-39 -1.57783e-40 5.24084e-41 3.67451e-41 1.00092e-41 1.1189e-42 -1.66174e-44 -4.15434e-45 -0 0 0 0 0 0 0 0 0 0 0 0 0 0 0 0 0 0 0 0 0 0 0 0 0 0 0 0 0 0 0 0 0 0 0 0 0 0 0 0 0 0 0 0 0 0 0 0 0 0 0 0 0 0 0 0 0 0 0 0 0 0 0 0 0 0 0 0 0 0 0 0 0 
0 0 0 0 0 0 0 0 0 0 0 0 0 0 0 0 0 0 0 0 0 0 0 0 0 0 0 0 0 0 0 0 0 0 0 0 0 0 0 0 0 0 0 0 0 0 0 0 0 0 0 0 0 0 0 0 0 0 0 0 0 0 0 0 0 0 0 0 0 0 0 -0 -4.16113e-45 -1.80316e-43 7.35133e-44 4.99475e-42 2.75925e-41 6.31188e-41 -5.67051e-41 -9.76136e-40 -3.74741e-39 -7.1679e-39 1.39081e-39 6.23234e-38 2.52118e-37 6.40828e-37 1.14104e-36 1.23275e-36 -3.33799e-37 -5.62499e-36 -1.71568e-35 -3.7032e-35 -6.58787e-35 -1.02133e-34 -1.42146e-34 -1.81183e-34 -2.14902e-34 -2.40608e-34 -2.57677e-34 -2.67024e-34 -2.69945e-34 -2.67024e-34 -2.57677e-34 -2.40608e-34 -2.14902e-34 -1.81183e-34 -1.42146e-34 -1.02133e-34 -6.58787e-35 -3.7032e-35 -1.71568e-35 -5.62499e-36 -3.33799e-37 1.23275e-36 1.14104e-36 6.40828e-37 2.52118e-37 6.23234e-38 1.39081e-39 -7.1679e-39 -3.74741e-39 -9.76136e-40 -5.67051e-41 6.31188e-41 2.75925e-41 4.99475e-42 7.35133e-44 -1.80316e-43 -4.16113e-45 -0 0 0 0 0 0 0 0 0 0 0 0 0 0 0 0 0 0 0 0 0 0 0 0 0 0 0 0 0 0 0 0 0 0 0 0 0 0 0 0 0 0 0 0 0 0 0 0 0 0 0 0 0 0 0 0 0 0 0 0 0 0 0 0 0 0 0 0 0 0 0 
0 0 0 0 0 0 0 0 0 0 0 0 0 0 0 0 0 0 0 0 0 0 0 0 0 0 0 0 0 0 0 0 0 0 0 0 0 0 0 0 0 0 0 0 0 0 0 0 0 0 0 0 0 0 0 0 0 0 0 0 0 0 0 0 0 0 0 0 0 0 -0 -1.08353e-43 -5.1954e-43 1.16132e-42 1.53403e-41 5.75744e-41 4.40094e-41 -5.59757e-40 -3.02035e-39 -7.06216e-39 2.24902e-40 6.84841e-38 2.97687e-37 7.48232e-37 1.08283e-36 -1.59168e-37 -6.3929e-36 -2.30796e-35 -5.59291e-35 -1.0671e-34 -1.67876e-34 -2.19026e-34 -2.28573e-34 -1.62014e-34 5.3137e-36 2.75982e-34 6.24209e-34 9.98645e-34 1.33369e-33 1.56562e-33 1.64849e-33 1.56562e-33 1.33369e-33 9.98645e-34 6.24209e-34 2.75982e-34 5.3137e-36 -1.62014e-34 -2.28573e-34 -2.19026e-34 -1.67876e-34 -1.0671e-34 -5.59291e-35 -2.30796e-35 -6.3929e-36 -1.59168e-37 1.08283e-36 7.48232e-37 2.97687e-37 6.84841e-38 2.24902e-40 -7.06216e-39 -3.02035e-39 -5.59757e-40 4.40094e-41 5.75744e-41 1.53403e-41 1.16132e-42 -5.1954e-43 -1.08353e-43 -0 0 0 0 0 0 0 0 0 0 0 0 0 0 0 0 0 0 0 0 0 0 0 0 0 0 0 0 0 0 0 0 0 0 0 0 0 0 0 0 0 0 0 0 0 0 0 0 0 0 0 0 0 0 0 0 0 0 0 0 0 0 0 0 0 0 0 0 0 0 
0 0 0 0 0 0 0 0 0 0 0 0 0 0 0 0 0 0 0 0 0 0 0 0 0 0 0 0 0 0 0 0 0 0 0 0 0 0 0 0 0 0 0 0 0 0 0 0 0 0 0 0 0 0 0 0 0 0 0 0 0 0 0 0 0 0 0 0 0 -4.17323e-45 -3.21339e-43 -6.98321e-43 5.03014e-42 3.70736e-41 8.79078e-41 -1.6135e-40 -1.93243e-39 -6.41375e-39 -4.94284e-39 5.01224e-38 2.73463e-37 7.34684e-37 8.76942e-37 -1.84302e-36 -1.35915e-35 -4.36667e-35 -9.76017e-35 -1.60568e-34 -1.7399e-34 -1.77238e-35 4.84498e-34 1.52514e-33 3.2455e-33 5.66778e-33 8.65957e-33 1.1951e-32 1.5198e-32 1.80625e-32 2.02755e-32 2.16623e-32 2.21334e-32 2.16623e-32 2.02755e-32 1.80625e-32 1.5198e-32 1.1951e-32 8.65957e-33 5.66778e-33 3.2455e-33 1.52514e-33 4.84498e-34 -1.77238e-35 -1.7399e-34 -1.60568e-34 -9.76017e-35 -4.36667e-35 -1.35915e-35 -1.84302e-36 8.76942e-37 7.34684e-37 2.73463e-37 5.01224e-38 -4.94284e-39 -6.41375e-39 -1.93243e-39 -1.6135e-40 8.79078e-41 3.70736e-41 5.03014e-42 -6.98321e-43 -3.21339e-43 -4.17323e-45 0 0 0 0 0 0 0 0 0 0 0 0 0 0 0 0 0 0 0 0 0 0 0 0 0 0 0 0 0 0 0 0 0 0 0 0 0 0 0 0 0 0 0 0 0 0 0 0 0 0 0 0 0 0 0 0 0 0 0 0 0 0 0 0 0 0 0 0 
0 0 0 0 0 0 0 0 0 0 0 0 0 0 0 0 0 0 0 0 0 0 0 0 0 0 0 0 0 0 0 0 0 0 0 0 0 0 0 0 0 0 0 0 0 0 0 0 0 0 0 0 0 0 0 0 0 0 0 0 0 0 0 0 0 0 0 -0 -7.66065e-44 -6.47674e-43 -2.24248e-43 1.5072e-41 7.30116e-41 6.98457e-41 -8.383e-40 -4.67423e-39 -8.88296e-39 2.11865e-38 2.00221e-37 6.5249e-37 8.49548e-37 -2.31394e-36 -1.71551e-35 -5.56537e-35 -1.16278e-34 -1.38483e-34 6.77865e-35 8.78155e-34 2.82205e-33 6.40005e-33 1.17667e-32 1.84118e-32 2.50437e-32 2.98289e-32 3.09744e-32 2.74447e-32 1.9504e-32 8.82449e-33 -1.92216e-33 -9.85275e-33 -1.27694e-32 -9.85275e-33 -1.92216e-33 8.82449e-33 1.9504e-32 2.74447e-32 3.09744e-32 2.98289e-32 2.50437e-32 1.84118e-32 1.17667e-32 6.40005e-33 2.82205e-33 8.78155e-34 6.77865e-35 -1.38483e-34 -1.16278e-34 -5.56537e-35 -1.71551e-35 -2.31394e-36 8.49548e-37 6.5249e-37 2.00221e-37 2.11865e-38 -8.88296e-39 -4.67423e-39 -8.383e-40 6.98457e-41 7.30116e-41 1.5072e-41 -2.24248e-43 -6.47674e-43 -7.66065e-44 -0 0 0 0 0 0 0 0 0 0 0 0 0 0 0 0 0 0 0 0 0 0 0 0 0 0 0 0 0 0 0 0 0 0 0 0 0 0 0 0 0 0 0 0 0 0 0 0 0 0 0 0 0 0 0 0 0 0 0 0 0 0 0 0 0 0 0 
0 0 0 0 0 0 0 0 0 0 0 0 0 0 0 0 0 0 0 0 0 0 0 0 0 0 0 0 0 0 0 0 0 0 0 0 0 0 0 0 0 0 0 0 0 0 0 0 0 0 0 0 0 0 0 0 0 0 0 0 0 0 0 0 0 0 -0 -2.52395e-43 -1.11835e-42 2.16976e-42 3.55961e-41 1.17005e-40 -1.16118e-40 -2.42362e-39 -8.64791e-39 -2.19664e-39 1.08577e-37 5.05621e-37 9.47741e-37 -1.33628e-36 -1.54077e-35 -5.53445e-35 -1.12459e-34 -6.87354e-35 4.52018e-34 2.19511e-33 6.10114e-33 1.25577e-32 2.00294e-32 2.35472e-32 1.40403e-32 -2.05173e-32 -9.19069e-32 -2.07323e-31 -3.65628e-31 -5.5588e-31 -7.58794e-31 -9.50548e-31 -1.10744e-30 -1.21e-30 -1.24562e-30 -1.21e-30 -1.10744e-30 -9.50548e-31 -7.58794e-31 -5.5588e-31 -3.65628e-31 -2.07323e-31 -9.19069e-32 -2.05173e-32 1.40403e-32 2.35472e-32 2.00294e-32 1.25577e-32 6.10114e-33 2.19511e-33 4.52018e-34 -6.87354e-35 -1.12459e-34 -5.53445e-35 -1.54077e-35 -1.33628e-36 9.47741e-37 5.05621e-37 1.08577e-37 -2.19664e-39 -8.64791e-39 -2.42362e-39 -1.16118e-40 1.17005e-40 3.55961e-41 2.16976e-42 -1.11835e-42 -2.52395e-43 -0 0 0 0 0 0 0 0 0 0 0 0 0 0 0 0 0 0 0 0 0 0 0 0 0 0 0 0 0 0 0 0 0 0 0 0 0 0 0 0 0 0 0 0 0 0 0 0 0 0 0 0 0 0 0 0 0 0 0 0 0 0 0 0 0 0 
0 0 0 0 0 0 0 0 0 0 0 0 0 0 0 0 0 0 0 0 0 0 0 0 0 0 0 0 0 0 0 0 0 0 0 0 0 0 0 0 0 0 0 0 0 0 0 0 0 0 0 0 0 0 0 0 0 0 0 0 0 0 0 0 0 -1.39588e-44 -5.62541e-43 -1.50755e-42 8.5107e-42 7.09346e-41 1.41469e-40 -6.92361e-40 -5.37771e-39 -1.16744e-38 3.23972e-38 3.09191e-37 9.1398e-37 1.25496e-37 -1.0116e-35 -4.59938e-35 -1.02515e-34 -3.45395e-35 6.81567e-34 3.12236e-33 8.40836e-33 1.55451e-32 1.70984e-32 -6.05412e-33 -8.72603e-32 -2.69351e-31 -5.90599e-31 -1.0651e-30 -1.66687e-30 -2.32776e-30 -2.95409e-30 -3.45681e-30 -3.78276e-30 -3.93227e-30 -3.95498e-30 -3.92505e-30 -3.90667e-30 -3.92505e-30 -3.95498e-30 -3.93227e-30 -3.78276e-30 -3.45681e-30 -2.95409e-30 -2.32776e-30 -1.66687e-30 -1.0651e-30 -5.90599e-31 -2.69351e-31 -8.72603e-32 -6.05412e-33 1.70984e-32 1.55451e-32 8.40836e-33 3.12236e-33 6.81567e-34 -3.45395e-35 -1.02515e-34 -4.59938e-35 -1.0116e-35 1.25496e-37 9.1398e-37 3.09191e-37 3.23972e-38 -1.16744e-38 -5.37771e-39 -6.92361e-40 1.41469e-40 7.09346e-41 8.5107e-42 -1.50755e-42 -5.62541e-43 -1.39588e-44 0 0 0 0 0 0 0 0 0 0 0 0 0 0 0 0 0 0 0 0 0 0 0 0 0 0 0 0 0 0 0 0 0 0 0 0 0 0 0 0 0 0 0 0 0 0 0 0 0 0 0 0 0 0 0 0 0 0 0 0 0 0 0 0 
0 0 0 0 0 0 0 0 0 0 0 0 0 0 0 0 0 0 0 0 0 0 0 0 0 0 0 0 0 0 0 0 0 0 0 0 0 0 0 0 0 0 0 0 0 0 0 0 0 0 0 0 0 0 0 0 0 0 0 0 0 0 0 -0 -9.22119e-44 -1.01293e-42 -1.22251e-42 2.16866e-41 1.22286e-40 7.94769e-41 -1.99569e-39 -9.80663e-39 -7.3309e-39 1.27179e-37 6.59135e-37 1.04613e-36 -4.21711e-36 -3.14737e-35 -8.98969e-35 -6.14427e-35 6.05377e-34 3.17967e-33 8.81615e-33 1.43529e-32 2.79341e-33 -6.91223e-32 -2.75293e-31 -6.98774e-31 -1.37192e-30 -2.18841e-30 -2.82818e-30 -2.75221e-30 -1.30594e-30 2.08019e-30 7.6594e-30 1.51991e-29 2.39469e-29 3.27502e-29 4.02936e-29 4.5378e-29 4.71717e-29 4.5378e-29 4.02936e-29 3.27502e-29 2.39469e-29 1.51991e-29 7.6594e-30 2.08019e-30 -1.30594e-30 -2.75221e-30 -2.82818e-30 -2.18841e-30 -1.37192e-30 -6.98774e-31 -2.75293e-31 -6.91223e-32 2.79341e-33 1.43529e-32 8.81615e-33 3.17967e-33 6.05377e-34 -6.14427e-35 -8.98969e-35 -3.14737e-35 -4.21711e-36 1.04613e-36 6.59135e-37 1.27179e-37 -7.3309e-39 -9.80663e-39 -1.99569e-39 7.94769e-41 1.22286e-40 2.16866e-41 -1.22251e-42 -1.01293e-42 -9.22119e-44 -0 0 0 0 0 0 0 0 0 0 0 0 0 0 0 0 0 0 0 0 0 0 0 0 0 0 0 0 0 0 0 0 0 0 0 0 0 0 0 0 0 0 0 0 0 0 0 0 0 0 0 0 0 0 0 0 0 0 0 0 0 0 0 
0 0 0 0 0 0 0 0 0 0 0 0 0 0 0 0 0 0 0 0 0 0 0 0 0 0 0 0 0 0 0 0 0 0 0 0 0 0 0 0 0 0 0 0 0 0 0 0 0 0 0 0 0 0 0 0 0 0 0 0 0 0 -0 -2.43295e-43 -1.70726e-42 5.10361e-43 4.54277e-41 1.83071e-40 -1.92754e-40 -4.43251e-39 -1.4754e-38 1.76157e-38 3.24554e-37 1.10381e-36 -1.25244e-37 -1.6078e-35 -6.84069e-35 -1.02568e-34 3.26338e-34 2.50774e-33 7.85328e-33 1.22588e-32 -9.14001e-33 -1.23887e-31 -4.45388e-31 -1.06331e-30 -1.84561e-30 -2.12088e-30 -3.74757e-31 5.79958e-30 1.92848e-29 4.25539e-29 7.66111e-29 1.20244e-28 1.69997e-28 2.20962e-28 2.68037e-28 3.07128e-28 3.35769e-28 3.53001e-28 3.58723e-28 3.53001e-28 3.35769e-28 3.07128e-28 2.68037e-28 2.20962e-28 1.69997e-28 1.20244e-28 7.66111e-29 4.25539e-29 1.92848e-29 5.79958e-30 -3.74757e-31 -2.12088e-30 -1.84561e-30 -1.06331e-30 -4.45388e-31 -1.23887e-31 -9.14001e-33 1.22588e-32 7.85328e-33 2.50774e-33 3.26338e-34 -1.02568e-34 -6.84069e-35 -1.6078e-35 -1.25244e-37 1.10381e-36 3.24554e-37 1.76157e-38 -1.4754e-38 -4.43251e-39 -1.92754e-40 1.83071e-40 4.54277e-41 5.10361e-43 -1.70726e-42 -2.43295e-43 -0 0 0 0 0 0 0 0 0 0 0 0 0 0 0 0 0 0 0 0 0 0 0 0 0 0 0 0 0 0 0 0 0 0 0 0 0 0 0 0 0 0 0 0 0 0 0 0 0 0 0 0 0 0 0 0 0 0 0 0 0 0 
0 0 0 0 0 0 0 0 0 0 0 0 0 0 0 0 0 0 0 0 0 0 0 0 0 0 0 0 0 0 0 0 0 0 0 0 0 0 0 0 0 0 0 0 0 0 0 0 0 0 0 0 0 0 0 0 0 0 0 0 0 -1.39918e-45 -4.84116e-43 -2.41219e-42 4.77261e-42 8.33604e-41 2.32327e-40 -8.67409e-40 -8.34446e-39 -1.71741e-38 8.50141e-38 6.60788e-37 1.36998e-36 -4.58613e-36 -4.00173e-35 -1.09378e-34 4.34674e-35 1.51113e-33 6.13657e-33 1.13155e-32 -8.48958e-33 -1.33563e-31 -5.02761e-31 -1.17083e-30 -1.65386e-30 -1.21586e-31 7.41925e-30 2.71254e-29 6.55646e-29 1.25968e-28 2.03637e-28 2.82948e-28 3.38478e-28 3.41269e-28 2.68726e-28 1.14486e-28 -1.05884e-28 -3.56064e-28 -5.87094e-28 -7.49937e-28 -8.08617e-28 -7.49937e-28 -5.87094e-28 -3.56064e-28 -1.05884e-28 1.14486e-28 2.68726e-28 3.41269e-28 3.38478e-28 2.82948e-28 2.03637e-28 1.25968e-28 6.55646e-29 2.71254e-29 7.41925e-30 -1.21586e-31 -1.65386e-30 -1.17083e-30 -5.02761e-31 -1.33563e-31 -8.48958e-33 1.13155e-32 6.13657e-33 1.51113e-33 4.34674e-35 -1.09378e-34 -4.00173e-35 -4.58613e-36 1.36998e-36 6.60788e-37 8.50141e-38 -1.71741e-38 -8.34446e-39 -8.67409e-40 2.32327e-40 8.33604e-41 4.77261e-42 -2.41219e-42 -4.84116e-43 -1.39918e-45 0 0 0 0 0 0 0 0 0 0 0 0 0 0 0 0 0 0 0 0 0 0 0 0 0 0 0 0 0 0 0 0 0 0 0 0 0 0 0 0 0 0 0 0 0 0 0 0 0 0 0 0 0 0 0 0 0 0 0 0 
0 0 0 0 0 0 0 0 0 0 0 0 0 0 0 0 0 0 0 0 0 0 0 0 0 0 0 0 0 0 0 0 0 0 0 0 0 0 0 0 0 0 0 0 0 0 0 0 0 0 0 0 0 0 0 0 0 0 0 0 -2.93988e-44 -8.90364e-43 -3.12047e-42 1.38538e-41 1.37729e-40 2.27559e-40 -2.19989e-39 -1.37629e-38 -1.07566e-38 2.24667e-37 1.13127e-36 7.98771e-37 -1.53453e-35 -7.77931e-35 -1.09115e-34 5.95536e-34 3.9845e-33 1.02922e-32 1.06769e-33 -9.98891e-32 -4.44891e-31 -1.07657e-30 -1.19442e-30 2.33005e-30 1.65045e-29 5.15428e-29 1.14563e-28 1.95685e-28 2.49519e-28 1.81411e-28 -1.49325e-28 -9.01652e-28 -2.20468e-27 -4.10556e-27 -6.535e-27 -9.30561e-27 -1.21444e-26 -1.47459e-26 -1.68271e-26 -1.81671e-26 -1.86291e-26 -1.81671e-26 -1.68271e-26 -1.47459e-26 -1.21444e-26 -9.30561e-27 -6.535e-27 -4.10556e-27 -2.20468e-27 -9.01652e-28 -1.49325e-28 1.81411e-28 2.49519e-28 1.95685e-28 1.14563e-28 5.15428e-29 1.65045e-29 2.33005e-30 -1.19442e-30 -1.07657e-30 -4.44891e-31 -9.98891e-32 1.06769e-33 1.02922e-32 3.9845e-33 5.95536e-34 -1.09115e-34 -7.77931e-35 -1.53453e-35 7.98771e-37 1.13127e-36 2.24667e-37 -1.07566e-38 -1.37629e-38 -2.19989e-39 2.27559e-40 1.37729e-40 1.38538e-41 -3.12047e-42 -8.90364e-43 -2.93988e-44 0 0 0 0 0 0 0 0 0 0 0 0 0 0 0 0 0 0 0 0 0 0 0 0 0 0 0 0 0 0 0 0 0 0 0 0 0 0 0 0 0 0 0 0 0 0 0 0 0 0 0 0 0 0 0 0 0 0 0 
0 0 0 0 0 0 0 0 0 0 0 0 0 0 0 0 0 0 0 0 0 0 0 0 0 0 0 0 0 0 0 0 0 0 0 0 0 0 0 0 0 0 0 0 0 0 0 0 0 0 0 0 0 0 0 0 0 0 0 -9.6637e-44 -1.47897e-42 -3.35568e-42 2.95541e-41 2.08019e-40 9.89058e-41 -4.48156e-39 -2.0064e-38 1.50592e-38 4.69368e-37 1.63624e-36 -1.81222e-36 -3.59175e-35 -1.21907e-34 3.43122e-35 1.90923e-33 7.7731e-33 9.60875e-33 -4.9428e-32 -3.20307e-31 -9.03558e-31 -9.97526e-31 3.19149e-30 2.08738e-29 6.4721e-29 1.35343e-28 1.83869e-28 5.72716e-29 -5.45301e-28 -2.0585e-27 -4.94159e-27 -9.48293e-27 -1.55901e-26 -2.26771e-26 -2.97398e-26 -3.56296e-26 -3.94368e-26 -4.08238e-26 -4.01612e-26 -3.8397e-26 -3.66992e-26 -3.6013e-26 -3.66992e-26 -3.8397e-26 -4.01612e-26 -4.08238e-26 -3.94368e-26 -3.56296e-26 -2.97398e-26 -2.26771e-26 -1.55901e-26 -9.48293e-27 -4.94159e-27 -2.0585e-27 -5.45301e-28 5.72716e-29 1.83869e-28 1.35343e-28 6.4721e-29 2.08738e-29 3.19149e-30 -9.97526e-31 -9.03558e-31 -3.20307e-31 -4.9428e-32 9.60875e-33 7.7731e-33 1.90923e-33 3.43122e-35 -1.21907e-34 -3.59175e-35 -1.81222e-36 1.63624e-36 4.69368e-37 1.50592e-38 -2.0064e-38 -4.48156e-39 9.89058e-41 2.08019e-40 2.95541e-41 -3.35568e-42 -1.47897e-42 -9.6637e-44 0 0 0 0 0 0 0 0 0 0 0 0 0 0 0 0 0 0 0 0 0 0 0 0 0 0 0 0 0 0 0 0 0 0 0 0 0 0 0 0 0 0 0 0 0 0 0 0 0 0 0 0 0 0 0 0 0 0 
0 0 0 0 0 0 0 0 0 0 0 0 0 0 0 0 0 0 0 0 0 0 0 0 0 0 0 0 0 0 0 0 0 0 0 0 0 0 0 0 0 0 0 0 0 0 0 0 0 0 0 0 0 0 0 0 0 -0 -1.98936e-43 -2.23173e-42 -2.72487e-42 5.42451e-41 2.88128e-40 -2.52791e-40 -7.98371e-39 -2.55717e-38 7.5431e-38 8.44346e-37 1.91308e-36 -8.277e-36 -6.88929e-35 -1.46228e-34 4.96055e-34 4.33023e-33 1.14609e-32 -8.43192e-33 -1.79285e-31 -6.82269e-31 -1.05413e-30 2.12703e-30 1.86796e-29 6.26307e-29 1.26657e-28 1.10728e-28 -2.93002e-28 -1.68954e-27 -4.89498e-27 -1.05155e-26 -1.8171e-26 -2.56112e-26 -2.82167e-26 -1.93939e-26 7.93599e-27 5.90726e-26 1.35263e-25 2.32304e-25 3.40607e-25 4.46767e-25 5.36142e-25 5.95729e-25 6.1664e-25 5.95729e-25 5.36142e-25 4.46767e-25 3.40607e-25 2.32304e-25 1.35263e-25 5.90726e-26 7.93599e-27 -1.93939e-26 -2.82167e-26 -2.56112e-26 -1.8171e-26 -1.05155e-26 -4.89498e-27 -1.68954e-27 -2.93002e-28 1.10728e-28 1.26657e-28 6.26307e-29 1.86796e-29 2.12703e-30 -1.05413e-30 -6.82269e-31 -1.79285e-31 -8.43192e-33 1.14609e-32 4.33023e-33 4.96055e-34 -1.46228e-34 -6.88929e-35 -8.277e-36 1.91308e-36 8.44346e-37 7.5431e-38 -2.55717e-38 -7.98371e-39 -2.52791e-40 2.88128e-40 5.42451e-41 -2.72487e-42 -2.23173e-42 -1.98936e-43 -0 0 0 0 0 0 0 0 0 0 0 0 0 0 0 0 0 0 0 0 0 0 0 0 0 0 0 0 0 0 0 0 0 0 0 0 0 0 0 0 0 0 0 0 0 0 0 0 0 0 0 0 0 0 0 0 0 
0 0 0 0 0 0 0 0 0 0 0 0 0 0 0 0 0 0 0 0 0 0 0 0 0 0 0 0 0 0 0 0 0 0 0 0 0 0 0 0 0 0 0 0 0 0 0 0 0 0 0 0 0 0 0 0 -0 -3.65717e-43 -3.10369e-42 -6.79589e-43 8.99523e-41 3.65703e-40 -9.54043e-40 -1.28764e-38 -2.71892e-38 1.89413e-37 1.35105e-36 1.46869e-36 -2.09095e-35 -1.13426e-34 -9.53644e-35 1.51928e-33 7.91777e-33 1.08162e-32 -6.52139e-32 -4.23134e-31 -1.02991e-30 3.53591e-31 1.24e-29 5.04502e-29 1.08277e-28 5.86356e-29 -5.31031e-28 -2.53899e-27 -7.01073e-27 -1.39323e-26 -1.9797e-26 -1.45662e-26 2.02942e-26 1.10562e-25 2.8357e-25 5.59064e-25 9.3994e-25 1.40718e-24 1.92194e-24 2.43459e-24 2.89711e-24 3.27367e-24 3.54514e-24 3.70654e-24 3.75978e-24 3.70654e-24 3.54514e-24 3.27367e-24 2.89711e-24 2.43459e-24 1.92194e-24 1.40718e-24 9.3994e-25 5.59064e-25 2.8357e-25 1.10562e-25 2.02942e-26 -1.45662e-26 -1.9797e-26 -1.39323e-26 -7.01073e-27 -2.53899e-27 -5.31031e-28 5.86356e-29 1.08277e-28 5.04502e-29 1.24e-29 3.53591e-31 -1.02991e-30 -4.23134e-31 -6.52139e-32 1.08162e-32 7.91777e-33 1.51928e-33 -9.53644e-35 -1.13426e-34 -2.09095e-35 1.46869e-36 1.35105e-36 1.89413e-37 -2.71892e-38 -1.28764e-38 -9.54043e-40 3.65703e-40 8.99523e-41 -6.79589e-43 -3.10369e-42 -3.65717e-43 -0 0 0 0 0 0 0 0 0 0 0 0 0 0 0 0 0 0 0 0 0 0 0 0 0 0 0 0 0 0 0 0 0 0 0 0 0 0 0 0 0 0 0 0 0 0 0 0 0 0 0 0 0 0 0 0 
0 0 0 0 0 0 0 0 0 0 0 0 0 0 0 0 0 0 0 0 0 0 0 0 0 0 0 0 0 0 0 0 0 0 0 0 0 0 0 0 0 0 0 0 0 0 0 0 0 0 0 0 0 0 0 -0 -5.87144e-43 -4.01332e-42 3.74147e-42 1.38196e-40 4.20612e-40 -2.1501e-39 -1.91375e-38 -2.01465e-38 3.78046e-37 1.94727e-36 -4.69352e-37 -4.21651e-35 -1.61805e-34 1.23979e-34 3.37111e-33 1.19911e-32 -2.62522e-33 -1.88688e-31 -7.69599e-31 -8.57901e-31 5.60862e-30 3.39662e-29 8.93031e-29 6.34136e-29 -5.02341e-28 -2.63135e-27 -7.42041e-27 -1.35739e-26 -1.19363e-26 2.19161e-26 1.32261e-25 3.77412e-25 8.07648e-25 1.42909e-24 2.16695e-24 2.84901e-24 3.22755e-24 3.0429e-24 2.11217e-24 4.11593e-25 -1.88144e-24 -4.40658e-24 -6.69754e-24 -8.2962e-24 -8.86956e-24 -8.2962e-24 -6.69754e-24 -4.40658e-24 -1.88144e-24 4.11593e-25 2.11217e-24 3.0429e-24 3.22755e-24 2.84901e-24 2.16695e-24 1.42909e-24 8.07648e-25 3.77412e-25 1.32261e-25 2.19161e-26 -1.19363e-26 -1.35739e-26 -7.42041e-27 -2.63135e-27 -5.02341e-28 6.34136e-29 8.93031e-29 3.39662e-29 5.60862e-30 -8.57901e-31 -7.69599e-31 -1.88688e-31 -2.62522e-33 1.19911e-32 3.37111e-33 1.23979e-34 -1.61805e-34 -4.21651e-35 -4.69352e-37 1.94727e-36 3.78046e-37 -2.01465e-38 -1.91375e-38 -2.1501e-39 4.20612e-40 1.38196e-40 3.74147e-42 -4.01332e-42 -5.87144e-43 -0 0 0 0 0 0 0 0 0 0 0 0 0 0 0 0 0 0 0 0 0 0 0 0 0 0 0 0 0 0 0 0 0 0 0 0 0 0 0 0 0 0 0 0 0 0 0 0 0 0 0 0 0 0 0 
0 0 0 0 0 0 0 0 0 0 0 0 0 0 0 0 0 0 0 0 0 0 0 0 0 0 0 0 0 0 0 0 0 0 0 0 0 0 0 0 0 0 0 0 0 0 0 0 0 0 0 0 0 0 -8.40779e-45 -9.47278e-43 -5.12595e-42 1.10941e-41 1.99684e-40 4.24823e-40 -3.99275e-39 -2.6472e-38 2.0157e-39 6.61274e-37 2.52737e-36 -4.95983e-36 -7.40112e-35 -1.95631e-34 6.45373e-34 6.2473e-33 1.45422e-32 -4.23875e-32 -4.04144e-31 -1.09303e-30 8.71532e-31 1.7738e-29 6.61574e-29 9.01846e-29 -2.85008e-28 -2.07804e-27 -6.48794e-27 -1.14501e-26 -2.64429e-27 5.99047e-26 2.48736e-25 6.46961e-25 1.27387e-24 1.95616e-24 2.18496e-24 1.03914e-24 -2.7397e-24 -1.04835e-23 -2.31961e-23 -4.11465e-23 -6.36163e-23 -8.89106e-23 -1.14629e-22 -1.38106e-22 -1.56855e-22 -1.68923e-22 -1.73084e-22 -1.68923e-22 -1.56855e-22 -1.38106e-22 -1.14629e-22 -8.89106e-23 -6.36163e-23 -4.11465e-23 -2.31961e-23 -1.04835e-23 -2.7397e-24 1.03914e-24 2.18496e-24 1.95616e-24 1.27387e-24 6.46961e-25 2.48736e-25 5.99047e-26 -2.64429e-27 -1.14501e-26 -6.48794e-27 -2.07804e-27 -2.85008e-28 9.01846e-29 6.61574e-29 1.7738e-29 8.71532e-31 -1.09303e-30 -4.04144e-31 -4.23875e-32 1.45422e-32 6.2473e-33 6.45373e-34 -1.95631e-34 -7.40112e-35 -4.95983e-36 2.52737e-36 6.61274e-37 2.0157e-39 -2.6472e-38 -3.99275e-39 4.24823e-40 1.99684e-40 1.10941e-41 -5.12595e-42 -9.47278e-43 -8.40779e-45 0 0 0 0 0 0 0 0 0 0 0 0 0 0 0 0 0 0 0 0 0 0 0 0 0 0 0 0 0 0 0 0 0 0 0 0 0 0 0 0 0 0 0 0 0 0 0 0 0 0 0 0 0 
0 0 0 0 0 0 0 0 0 0 0 0 0 0 0 0 0 0 0 0 0 0 0 0 0 0 0 0 0 0 0 0 0 0 0 0 0 0 0 0 0 0 0 0 0 0 0 0 0 0 0 0 0 -2.94273e-44 -1.35225e-42 -6.08724e-42 2.22316e-41 2.73755e-40 3.43963e-40 -6.62078e-39 -3.42276e-38 4.72292e-38 1.05351e-36 2.90381e-36 -1.32989e-35 -1.17004e-34 -1.82143e-34 1.6347e-33 1.01192e-32 1.16128e-32 -1.26464e-31 -7.15653e-31 -1.0663e-30 5.80071e-30 3.91352e-29 9.46727e-29 -5.17867e-29 -1.25576e-27 -4.91515e-27 -9.64124e-27 -7.1509e-29 7.26229e-26 3.00328e-25 7.67361e-25 1.36964e-24 1.47267e-24 -5.00053e-25 -7.29754e-24 -2.25676e-23 -4.98885e-23 -9.12616e-23 -1.45623e-22 -2.08143e-22 -2.70895e-22 -3.24926e-22 -3.63067e-22 -3.82369e-22 -3.85115e-22 -3.77884e-22 -3.68968e-22 -3.65133e-22 -3.68968e-22 -3.77884e-22 -3.85115e-22 -3.82369e-22 -3.63067e-22 -3.24926e-22 -2.70895e-22 -2.08143e-22 -1.45623e-22 -9.12616e-23 -4.98885e-23 -2.25676e-23 -7.29754e-24 -5.00053e-25 1.47267e-24 1.36964e-24 7.67361e-25 3.00328e-25 7.26229e-26 -7.1509e-29 -9.64124e-27 -4.91515e-27 -1.25576e-27 -5.17867e-29 9.46727e-29 3.91352e-29 5.80071e-30 -1.0663e-30 -7.15653e-31 -1.26464e-31 1.16128e-32 1.01192e-32 1.6347e-33 -1.82143e-34 -1.17004e-34 -1.32989e-35 2.90381e-36 1.05351e-36 4.72292e-38 -3.42276e-38 -6.62078e-39 3.43963e-40 2.73755e-40 2.22316e-41 -6.08724e-42 -1.35225e-42 -2.94273e-44 0 0 0 0 0 0 0 0 0 0 0 0 0 0 0 0 0 0 0 0 0 0 0 0 0 0 0 0 0 0 0 0 0 0 0 0 0 0 0 0 0 0 0 0 0 0 0 0 0 0 0 0 
0 0 0 0 0 0 0 0 0 0 0 0 0 0 0 0 0 0 0 0 0 0 0 0 0 0 0 0 0 0 0 0 0 0 0 0 0 0 0 0 0 0 0 0 0 0 0 0 0 0 0 0 -6.72623e-44 -1.87634e-42 -6.89859e-42 3.76094e-41 3.58169e-40 1.38148e-40 -1.01367e-38 -4.13351e-38 1.24336e-37 1.55811e-36 2.79532e-36 -2.68936e-35 -1.69145e-34 -7.18433e-35 3.26702e-33 1.45312e-32 -3.16691e-33 -2.74303e-31 -1.07753e-30 -7.77296e-32 1.59771e-29 6.86871e-29 7.98491e-29 -5.11967e-28 -3.12867e-27 -8.0217e-27 -3.72384e-27 5.66112e-26 2.72238e-25 7.23739e-25 1.16393e-24 3.57014e-25 -4.77158e-24 -1.95118e-23 -5.02042e-23 -1.00671e-22 -1.66492e-22 -2.29078e-22 -2.52822e-22 -1.88502e-22 1.59178e-23 3.99221e-22 9.70669e-22 1.69956e-21 2.51497e-21 3.31653e-21 3.99322e-21 4.44536e-21 4.60423e-21 4.44536e-21 3.99322e-21 3.31653e-21 2.51497e-21 1.69956e-21 9.70669e-22 3.99221e-22 1.59178e-23 -1.88502e-22 -2.52822e-22 -2.29078e-22 -1.66492e-22 -1.00671e-22 -5.02042e-23 -1.95118e-23 -4.77158e-24 3.57014e-25 1.16393e-24 7.23739e-25 2.72238e-25 5.66112e-26 -3.72384e-27 -8.0217e-27 -3.12867e-27 -5.11967e-28 7.98491e-29 6.86871e-29 1.59771e-29 -7.77296e-32 -1.07753e-30 -2.74303e-31 -3.16691e-33 1.45312e-32 3.26702e-33 -7.18433e-35 -1.69145e-34 -2.68936e-35 2.79532e-36 1.55811e-36 1.24336e-37 -4.13351e-38 -1.01367e-38 1.38148e-40 3.58169e-40 3.76094e-41 -6.89859e-42 -1.87634e-42 -6.72623e-44 0 0 0 0 0 0 0 0 0 0 0 0 0 0 0 0 0 0 0 0 0 0 0 0 0 0 0 0 0 0 0 0 0 0 0 0 0 0 0 0 0 0 0 0 0 0 0 0 0 0 0 