<?xml version="1.0"?>
<VTKFile type="ImageData" version="0.1" byte_order="LittleEndian">
<ImageData WholeExtent="0 199 0 199 0 0" Origin="0 0 0" Spacing="15 15 0">
<Piece Extent="0 199 0 199 0 0">
<PointData Scalars="Amplitude">
<DataArray type="Float32" Name="Amplitude" format="ascii">
0 0 0 0 0 0 0 0 0 0 0 0 0 0 0 0 0 0 0 0 0 0 0 0 0 0 0 0 0 0 0 0 0 0 0 0 0 0 0 0 0 0 0 0 0 0 0 0 0 0 0 0 0 0 0 0 0 0 0 0 0 0 0 0 0 0 0 0 0 0 0 0 0 0 0 0 0 0 0 0 0 0 0 0 0 0 0 0 0 0 0 0 0 0 0 0 0 0 0 0 0 0 0 0 0 0 0 0 0 0 0 0 0 0 0 0 0 0 0 0 0 0 0 0 0 0 0 0 0 0 0 0 0 0 0 0 0 0 0 0 0 0 0 0 0 0 0 0 0 0 0 0 0 0 0 0 0 0 0 0 0 0 0 0 0 0 0 0 0 0 0 0 0 0 0 0 0 0 0 0 0 0 0 0 0 0 0 0 0 0 0 0 0 0 0 0 0 0 0 0 
0 0 0 0 0 0 0 0 0 0 0 0 0 0 0 0 0 0 0 0 0 0 0 0 0 0 0 0 0 0 0 0 0 0 0 0 0 0 0 0 0 0 0 0 0 0 0 0 0 0 0 0 0 0 0 0 0 0 0 0 0 0 0 0 0 0 0 0 0 0 0 0 0 0 0 0 0 0 0 0 0 0 0 0 0 0 0 0 0 0 0 0 0 0 0 0 0 0 0 0 0 0 0 0 0 0 0 0 0 0 0 0 0 0 0 0 0 0 0 0 0 0 0 0 0 0 0 0 0 0 0 0 0 0 0 0 0 0 0 0 0 0 0 0 0 0 0 0 0 0 0 0 0 0 0 0 0 0 0 0 0 0 0 0 0 0 0 0 0 0 0 0 0 0 0 0 0 0 0 0 0 0 0 0 0 0 0 0 0 0 0 0 0 0 0 0 0 0 0 0 
0 0 0 0 0 0 0 0 0 0 0 0 0 0 0 0 0 0 0 0 0 0 0 0 0 0 0 0 0 0 0 0 0 0 0 0 0 0 0 0 0 0 0 0 0 0 0 0 0 0 0 0 0 0 0 -0 -0 -3.93577e-44 -1.57431e-43 1.04909e-42 9.26262e-42 2.34775e-41 -4.47754e-41 -5.33087e-40 -1.61681e-39 2.69179e-40 2.16334e-38 8.90451e-38 1.34799e-37 -3.79167e-37 -2.99122e-36 -9.21092e-36 -1.27074e-35 2.25544e-35 1.93101e-34 6.42114e-34 1.35626e-33 1.55301e-33 -1.45815e-33 -1.3561e-32 -4.39369e-32 -1.01629e-31 -1.85966e-31 -2.69816e-31 -2.78365e-31 -7.09869e-32 5.6275e-31 1.88273e-30 4.15006e-30 7.55859e-30 1.21652e-29 1.7843e-29 2.42786e-29 3.10195e-29 3.75611e-29 4.3446e-29 4.83454e-29 5.20952e-29 5.46794e-29 5.61711e-29 5.66561e-29 5.61711e-29 5.46794e-29 5.20952e-29 4.83454e-29 4.3446e-29 3.75611e-29 3.10195e-29 2.42786e-29 1.7843e-29 1.21652e-29 7.55859e-30 4.15006e-30 1.88273e-30 5.6275e-31 -7.09869e-32 -2.78365e-31 -2.69816e-31 -1.85966e-31 -1.01629e-31 -4.39369e-32 -1.3561e-32 -1.45815e-33 1.55301e-33 1.35626e-33 6.42114e-34 1.93101e-34 2.25544e-35 -1.27074e-35 -9.21092e-36 -2.99122e-36 -3.79167e-37 1.34799e-37 8.90451e-38 2.16334e-38 2.69179e-40 -1.61681e-39 -5.33087e-40 -4.47754e-41 2.34775e-41 9.26262e-42 1.04909e-42 -1.57431e-43 -3.93577e-44 -0 -0 0 0 0 0 0 0 0 0 0 0 0 0 0 0 0 0 0 0 0 0 0 0 0 0 0 0 0 0 0 0 0 0 0 0 0 0 0 0 0 0 0 0 0 0 0 0 0 0 0 0 0 0 0 0 
0 0 0 0 0 0 0 0 0 0 0 0 0 0 0 0 0 0 0 0 0 0 0 0 0 0 0 0 0 0 0 0 0 0 0 0 0 0 0 0 0 0 0 0 0 0 0 0 0 0 0 0 0 0 0 -3.44163e-44 -4.1239e-43 -1.20824e-42 2.455e-42 3.0534e-41 8.42478e-41 -1.36341e-40 -1.83826e-39 -5.6908e-39 1.43652e-39 8.04879e-38 3.22421e-37 4.19905e-37 -1.8068e-36 -1.21181e-35 -3.3766e-35 -3.1065e-35 1.62044e-34 9.35328e-34 2.68629e-33 4.55695e-33 1.2058e-33 -2.22289e-32 -9.33339e-32 -2.44363e-31 -4.7844e-31 -6.97456e-31 -5.94162e-31 4.60282e-31 3.47002e-30 9.73087e-30 2.05532e-29 3.68029e-29 5.83654e-29 8.37241e-29 1.0986e-28 1.32615e-28 1.47521e-28 1.50903e-28 1.40971e-28 1.18537e-28 8.71327e-29 5.2429e-29 2.10904e-29 -6.64594e-31 -8.44449e-30 -6.64594e-31 2.10904e-29 5.2429e-29 8.71327e-29 1.18537e-28 1.40971e-28 1.50903e-28 1.47521e-28 1.32615e-28 1.0986e-28 8.37241e-29 5.83654e-29 3.68029e-29 2.05532e-29 9.73087e-30 3.47002e-30 4.60282e-31 -5.94162e-31 -6.97456e-31 -4.7844e-31 -2.44363e-31 -9.33339e-32 -2.22289e-32 1.2058e-33 4.55695e-33 2.68629e-33 9.35328e-34 1.62044e-34 -3.1065e-35 -3.3766e-35 -1.21181e-35 -1.8068e-36 4.19905e-37 3.22421e-37 8.04879e-38 1.43652e-39 -5.6908e-39 -1.83826e-39 -1.36341e-40 8.42478e-41 3.0534e-41 2.455e-42 -1.20824e-42 -4.1239e-43 -3.44163e-44 0 0 0 0 0 0 0 0 0 0 0 0 0 0 0 0 0 0 0 0 0 0 0 0 0 0 0 0 0 0 0 0 0 0 0 0 0 0 0 0 0 0 0 0 0 0 0 0 0 0 0 0 0 0 
0 0 0 0 0 0 0 0 0 0 0 0 0 0 0 0 0 0 0 0 0 0 0 0 0 0 0 0 0 0 0 0 0 0 0 0 0 0 0 0 0 0 0 0 0 0 0 0 0 0 0 0 0 0 -0 -2.9744e-43 -2.02341e-42 -2.60465e-42 2.5498e-41 1.46581e-40 1.81061e-40 -1.54787e-39 -9.0859e-39 -1.56529e-38 5.79634e-38 4.44876e-37 1.16227e-36 -2.56299e-37 -1.38481e-35 -5.60769e-35 -1.02818e-34 7.7753e-35 1.20813e-33 4.44362e-33 9.49756e-33 8.45442e-33 -2.60314e-32 -1.52429e-31 -4.51308e-31 -9.57326e-31 -1.48934e-30 -1.36616e-30 9.27372e-31 7.9532e-30 2.31615e-29 5.01322e-29 9.11628e-29 1.45452e-28 2.07455e-28 2.66164e-28 3.05958e-28 3.09235e-28 2.60426e-28 1.50412e-28 -1.99087e-29 -2.38024e-28 -4.8079e-28 -7.17868e-28 -9.16931e-28 -1.04946e-27 -1.09594e-27 -1.04946e-27 -9.16931e-28 -7.17868e-28 -4.8079e-28 -2.38024e-28 -1.99087e-29 1.50412e-28 2.60426e-28 3.09235e-28 3.05958e-28 2.66164e-28 2.07455e-28 1.45452e-28 9.11628e-29 5.01322e-29 2.31615e-29 7.9532e-30 9.27372e-31 -1.36616e-30 -1.48934e-30 -9.57326e-31 -4.51308e-31 -1.52429e-31 -2.60314e-32 8.45442e-33 9.49756e-33 4.44362e-33 1.20813e-33 7.7753e-35 -1.02818e-34 -5.60769e-35 -1.38481e-35 -2.56299e-37 1.16227e-36 4.44876e-37 5.79634e-38 -1.56529e-38 -9.0859e-39 -1.54787e-39 1.81061e-40 1.46581e-40 2.5498e-41 -2.60465e-42 -2.02341e-42 -2.9744e-43 -0 0 0 0 0 0 0 0 0 0 0 0 0 0 0 0 0 0 0 0 0 0 0 0 0 0 0 0 0 0 0 0 0 0 0 0 0 0 0 0 0 0 0 0 0 0 0 0 0 0 0 0 0 0 
0 0 0 0 0 0 0 0 0 0 0 0 0 0 0 0 0 0 0 0 0 0 0 0 0 0 0 0 0 0 0 0 0 0 0 0 0 0 0 0 0 0 0 0 0 0 0 0 0 0 0 0 0 -2.05169e-44 -8.15205e-43 -3.70672e-42 2.02434e-43 6.97042e-41 2.75418e-40 -6.27859e-41 -4.70523e-39 -1.82965e-38 -5.90154e-39 2.33266e-37 1.05085e-36 1.42232e-36 -6.74872e-36 -4.47843e-35 -1.16144e-34 -3.34562e-35 9.76609e-34 4.42945e-33 1.03954e-32 8.60141e-33 -4.03559e-32 -2.2311e-31 -6.45298e-31 -1.26301e-30 -1.46266e-30 6.29424e-31 8.85919e-30 2.91252e-29 6.78336e-29 1.27794e-28 2.01367e-28 2.62092e-28 2.57655e-28 1.08045e-28 -2.87754e-28 -1.03548e-27 -2.22215e-27 -3.89122e-27 -6.02375e-27 -8.53161e-27 -1.12653e-26 -1.40344e-26 -1.66344e-26 -1.88725e-26 -2.05885e-26 -2.16649e-26 -2.20315e-26 -2.16649e-26 -2.05885e-26 -1.88725e-26 -1.66344e-26 -1.40344e-26 -1.12653e-26 -8.53161e-27 -6.02375e-27 -3.89122e-27 -2.22215e-27 -1.03548e-27 -2.87754e-28 1.08045e-28 2.57655e-28 2.62092e-28 2.01367e-28 1.27794e-28 6.78336e-29 2.91252e-29 8.85919e-30 6.29424e-31 -1.46266e-30 -1.26301e-30 -6.45298e-31 -2.2311e-31 -4.03559e-32 8.60141e-33 1.03954e-32 4.42945e-33 9.76609e-34 -3.34562e-35 -1.16144e-34 -4.47843e-35 -6.74872e-36 1.42232e-36 1.05085e-36 2.33266e-37 -5.90154e-39 -1.82965e-38 -4.70523e-39 -6.27859e-41 2.75418e-40 6.97042e-41 2.02434e-43 -3.70672e-42 -8.15205e-43 -2.05169e-44 0 0 0 0 0 0 0 0 0 0 0 0 0 0 0 0 0 0 0 0 0 0 0 0 0 0 0 0 0 0 0 0 0 0 0 0 0 0 0 0 0 0 0 0 0 0 0 0 0 0 0 0 
0 0 0 0 0 0 0 0 0 0 0 0 0 0 0 0 0 0 0 0 0 0 0 0 0 0 0 0 0 0 0 0 0 0 0 0 0 0 0 0 0 0 0 0 0 0 0 0 0 0 0 0 -1.2065e-43 -1.855e-42 -6.24502e-42 1.10038e-41 1.60927e-40 4.41037e-40 -1.0353e-39 -1.1552e-38 -3.04085e-38 5.23322e-38 6.59861e-37 2.00267e-36 -4.22864e-37 -2.70403e-35 -1.0849e-34 -1.50402e-34 5.27945e-34 3.75336e-33 1.0849e-32 1.23045e-32 -3.87429e-32 -2.57166e-31 -7.82717e-31 -1.47393e-30 -1.08778e-30 4.08963e-30 2.14324e-29 6.09317e-29 1.28585e-28 2.10906e-28 2.49976e-28 1.14251e-28 -4.22427e-28 -1.67638e-27 -4.00914e-27 -7.73851e-27 -1.30215e-26 -1.97437e-26 -2.74606e-26 -3.54263e-26 -4.27221e-26 -4.84602e-26 -5.20078e-26 -5.3162e-26 -5.22198e-26 -4.99135e-26 -4.72259e-26 -4.51335e-26 -4.43492e-26 -4.51335e-26 -4.72259e-26 -4.99135e-26 -5.22198e-26 -5.3162e-26 -5.20078e-26 -4.84602e-26 -4.27221e-26 -3.54263e-26 -2.74606e-26 -1.97437e-26 -1.30215e-26 -7.73851e-27 -4.00914e-27 -1.67638e-27 -4.22427e-28 1.14251e-28 2.49976e-28 2.10906e-28 1.28585e-28 6.09317e-29 2.14324e-29 4.08963e-30 -1.08778e-30 -1.47393e-30 -7.82717e-31 -2.57166e-31 -3.87429e-32 1.23045e-32 1.0849e-32 3.75336e-33 5.27945e-34 -1.50402e-34 -1.0849e-34 -2.70403e-35 -4.22864e-37 2.00267e-36 6.59861e-37 5.23322e-38 -3.04085e-38 -1.1552e-38 -1.0353e-39 4.41037e-40 1.60927e-40 1.10038e-41 -6.24502e-42 -1.855e-42 -1.2065e-43 0 0 0 0 0 0 0 0 0 0 0 0 0 0 0 0 0 0 0 0 0 0 0 0 0 0 0 0 0 0 0 0 0 0 0 0 0 0 0 0 0 0 0 0 0 0 0 0 0 0 0 
0 0 0 0 0 0 0 0 0 0 0 0 0 0 0 0 0 0 0 0 0 0 0 0 0 0 0 0 0 0 0 0 0 0 0 0 0 0 0 0 0 0 0 0 0 0 0 0 0 0 -0 -3.84747e-43 -3.75403e-42 -8.80522e-42 3.97444e-41 3.26429e-40 5.46007e-40 -3.6969e-39 -2.4248e-38 -3.67276e-38 2.34836e-37 1.51661e-36 2.84323e-36 -9.15045e-36 -7.53863e-35 -2.00841e-34 4.98182e-35 2.46129e-33 9.85702e-33 1.70555e-32 -2.05437e-32 -2.36682e-31 -8.23497e-31 -1.61471e-30 -7.95779e-31 7.3943e-30 3.4402e-29 9.34998e-29 1.81366e-28 2.35741e-28 6.84631e-29 -7.0595e-28 -2.69749e-27 -6.65353e-27 -1.31942e-26 -2.23577e-26 -3.30356e-26 -4.24791e-26 -4.61175e-26 -3.79025e-26 -1.12541e-26 3.95216e-26 1.17663e-25 2.22665e-25 3.49651e-25 4.89604e-25 6.3044e-25 7.58667e-25 8.61281e-25 9.27558e-25 9.50467e-25 9.27558e-25 8.61281e-25 7.58667e-25 6.3044e-25 4.89604e-25 3.49651e-25 2.22665e-25 1.17663e-25 3.95216e-26 -1.12541e-26 -3.79025e-26 -4.61175e-26 -4.24791e-26 -3.30356e-26 -2.23577e-26 -1.31942e-26 -6.65353e-27 -2.69749e-27 -7.0595e-28 6.84631e-29 2.35741e-28 1.81366e-28 9.34998e-29 3.4402e-29 7.3943e-30 -7.95779e-31 -1.61471e-30 -8.23497e-31 -2.36682e-31 -2.05437e-32 1.70555e-32 9.85702e-33 2.46129e-33 4.98182e-35 -2.00841e-34 -7.53863e-35 -9.15045e-36 2.84323e-36 1.51661e-36 2.34836e-37 -3.67276e-38 -2.4248e-38 -3.6969e-39 5.46007e-40 3.26429e-40 3.97444e-41 -8.80522e-42 -3.75403e-42 -3.84747e-43 -0 0 0 0 0 0 0 0 0 0 0 0 0 0 0 0 0 0 0 0 0 0 0 0 0 0 0 0 0 0 0 0 0 0 0 0 0 0 0 0 0 0 0 0 0 0 0 0 0 0 
0 0 0 0 0 0 0 0 0 0 0 0 0 0 0 0 0 0 0 0 0 0 0 0 0 0 0 0 0 0 0 0 0 0 0 0 0 0 0 0 0 0 0 0 0 0 0 0 0 -4.13103e-45 -9.40498e-43 -6.89469e-42 -9.6253e-42 1.02777e-40 5.91313e-40 3.36671e-40 -9.63555e-39 -4.43439e-38 -1.30242e-38 6.73792e-37 2.94062e-36 1.91887e-36 -3.41874e-35 -1.67527e-34 -2.52417e-34 1.0127e-33 7.19909e-33 1.90587e-32 4.99732e-33 -1.66872e-31 -7.49973e-31 -1.70481e-30 -1.04926e-30 8.52405e-30 4.23919e-29 1.16509e-28 2.10311e-28 1.78134e-28 -3.89998e-28 -2.29395e-27 -6.67383e-27 -1.45395e-26 -2.56454e-26 -3.66623e-26 -3.89725e-26 -1.68648e-26 5.27939e-26 1.98432e-25 4.48872e-25 8.26378e-25 1.33947e-24 1.97783e-24 2.71139e-24 3.49421e-24 4.27248e-24 4.99401e-24 5.61654e-24 6.11225e-24 6.46775e-24 6.67996e-24 6.75033e-24 6.67996e-24 6.46775e-24 6.11225e-24 5.61654e-24 4.99401e-24 4.27248e-24 3.49421e-24 2.71139e-24 1.97783e-24 1.33947e-24 8.26378e-25 4.48872e-25 1.98432e-25 5.27939e-26 -1.68648e-26 -3.89725e-26 -3.66623e-26 -2.56454e-26 -1.45395e-26 -6.67383e-27 -2.29395e-27 -3.89998e-28 1.78134e-28 2.10311e-28 1.16509e-28 4.23919e-29 8.52405e-30 -1.04926e-30 -1.70481e-30 -7.49973e-31 -1.66872e-31 4.99732e-33 1.90587e-32 7.19909e-33 1.0127e-33 -2.52417e-34 -1.67527e-34 -3.41874e-35 1.91887e-36 2.94062e-36 6.73792e-37 -1.30242e-38 -4.43439e-38 -9.63555e-39 3.36671e-40 5.91313e-40 1.02777e-40 -9.6253e-42 -6.89469e-42 -9.40498e-43 -4.13103e-45 0 0 0 0 0 0 0 0 0 0 0 0 0 0 0 0 0 0 0 0 0 0 0 0 0 0 0 0 0 0 0 0 0 0 0 0 0 0 0 0 0 0 0 0 0 0 0 0 
0 0 0 0 0 0 0 0 0 0 0 0 0 0 0 0 0 0 0 0 0 0 0 0 0 0 0 0 0 0 0 0 0 0 0 0 0 0 0 0 0 0 0 0 0 0 0 0 -4.00131e-44 -1.98686e-42 -1.15196e-41 -4.854e-42 2.23713e-40 9.60677e-40 -7.04825e-40 -2.11203e-38 -7.04684e-38 9.2263e-38 1.56197e-36 4.80261e-36 -4.74274e-36 -9.05915e-35 -3.051e-34 -3.86475e-35 3.75563e-33 1.61412e-32 2.41886e-32 -7.49917e-32 -5.6574e-31 -1.65403e-30 -1.78945e-30 6.66279e-30 4.21639e-29 1.25125e-28 2.21393e-28 9.39803e-29 -9.36083e-28 -4.16336e-27 -1.11766e-26 -2.23411e-26 -3.33839e-26 -2.99774e-26 1.84509e-26 1.62702e-25 4.71296e-25 1.01751e-24 1.85484e-24 2.98481e-24 4.32673e-24 5.70236e-24 6.84703e-24 7.45181e-24 7.23129e-24 6.00002e-24 3.73733e-24 6.19574e-25 -2.99138e-24 -6.6037e-24 -9.68249e-24 -1.17506e-23 -1.2479e-23 -1.17506e-23 -9.68249e-24 -6.6037e-24 -2.99138e-24 6.19574e-25 3.73733e-24 6.00002e-24 7.23129e-24 7.45181e-24 6.84703e-24 5.70236e-24 4.32673e-24 2.98481e-24 1.85484e-24 1.01751e-24 4.71296e-25 1.62702e-25 1.84509e-26 -2.99774e-26 -3.33839e-26 -2.23411e-26 -1.11766e-26 -4.16336e-27 -9.36083e-28 9.39803e-29 2.21393e-28 1.25125e-28 4.21639e-29 6.66279e-30 -1.78945e-30 -1.65403e-30 -5.6574e-31 -7.49917e-32 2.41886e-32 1.61412e-32 3.75563e-33 -3.86475e-35 -3.051e-34 -9.05915e-35 -4.74274e-36 4.80261e-36 1.56197e-36 9.2263e-38 -7.04684e-38 -2.11203e-38 -7.04825e-40 9.60677e-40 2.23713e-40 -4.854e-42 -1.15196e-41 -1.98686e-42 -4.00131e-44 0 0 0 0 0 0 0 0 0 0 0 0 0 0 0 0 0 0 0 0 0 0 0 0 0 0 0 0 0 0 0 0 0 0 0 0 0 0 0 0 0 0 0 0 0 0 0 
0 0 0 0 0 0 0 0 0 0 0 0 0 0 0 0 0 0 0 0 0 0 0 0 0 0 0 0 0 0 0 0 0 0 0 0 0 0 0 0 0 0 0 0 0 0 0 -1.45147e-43 -3.79179e-42 -1.77978e-41 1.24398e-41 4.32723e-40 1.39072e-39 -3.47018e-39 -4.08563e-38 -9.44493e-38 3.70331e-37 3.12183e-36 6.29417e-36 -2.47255e-35 -1.96931e-34 -4.41178e-34 9.44868e-34 9.78556e-33 2.8627e-32 1.44982e-33 -3.20927e-31 -1.36302e-30 -2.45927e-30 2.74655e-30 3.37546e-29 1.18328e-28 2.27041e-28 6.96561e-29 -1.26366e-27 -5.53678e-27 -1.45809e-26 -2.68728e-26 -2.97807e-26 1.25638e-26 1.7164e-25 5.56982e-25 1.2934e-24 2.45811e-24 3.97318e-24 5.46949e-24 6.16374e-24 4.80829e-24 -2.29487e-25 -1.07327e-23 -2.82714e-23 -5.37911e-23 -8.72667e-23 -1.27526e-22 -1.72303e-22 -2.18501e-22 -2.62603e-22 -3.01127e-22 -3.31014e-22 -3.49921e-22 -3.56389e-22 -3.49921e-22 -3.31014e-22 -3.01127e-22 -2.62603e-22 -2.18501e-22 -1.72303e-22 -1.27526e-22 -8.72667e-23 -5.37911e-23 -2.82714e-23 -1.07327e-23 -2.29487e-25 4.80829e-24 6.16374e-24 5.46949e-24 3.97318e-24 2.45811e-24 1.2934e-24 5.56982e-25 1.7164e-25 1.25638e-26 -2.97807e-26 -2.68728e-26 -1.45809e-26 -5.53678e-27 -1.26366e-27 6.96561e-29 2.27041e-28 1.18328e-28 3.37546e-29 2.74655e-30 -2.45927e-30 -1.36302e-30 -3.20927e-31 1.44982e-33 2.8627e-32 9.78556e-33 9.44868e-34 -4.41178e-34 -1.96931e-34 -2.47255e-35 6.29417e-36 3.12183e-36 3.70331e-37 -9.44493e-38 -4.08563e-38 -3.47018e-39 1.39072e-39 4.32723e-40 1.24398e-41 -1.77978e-41 -3.79179e-42 -1.45147e-43 0 0 0 0 0 0 0 0 0 0 0 0 0 0 0 0 0 0 0 0 0 0 0 0 0 0 0 0 0 0 0 0 0 0 0 0 0 0 0 0 0 0 0 0 0 0 
0 0 0 0 0 0 0 0 0 0 0 0 0 0 0 0 0 0 0 0 0 0 0 0 0 0 0 0 0 0 0 0 0 0 0 0 0 0 0 0 0 0 0 0 0 0 -3.71121e-43 -6.72172e-42 -2.53595e-41 5.24818e-41 7.61959e-40 1.74963e-39 -9.29668e-39 -7.12888e-38 -9.60969e-38 9.59621e-37 5.51703e-36 5.33217e-36 -7.01235e-35 -3.6713e-34 -4.23571e-34 3.59812e-33 2.06293e-32 3.77009e-32 -1.02268e-31 -8.74916e-31 -2.50564e-30 -1.17461e-30 2.03008e-29 9.65158e-29 2.24644e-28 1.35773e-28 -1.18368e-27 -5.87131e-27 -1.60061e-26 -2.78354e-26 -1.79235e-26 7.85617e-26 3.86287e-25 1.07604e-24 2.2729e-24 3.83903e-24 5.01592e-24 3.98314e-24 -2.51123e-24 -1.92158e-23 -5.19075e-23 -1.06287e-22 -1.86384e-22 -2.92878e-22 -4.21948e-22 -5.65153e-22 -7.1066e-22 -8.4557e-22 -9.5877e-22 -1.04342e-21 -1.09829e-21 -1.12757e-21 -1.13906e-21 -1.14143e-21 -1.14139e-21 -1.14143e-21 -1.13906e-21 -1.12757e-21 -1.09829e-21 -1.04342e-21 -9.5877e-22 -8.4557e-22 -7.1066e-22 -5.65153e-22 -4.21948e-22 -2.92878e-22 -1.86384e-22 -1.06287e-22 -5.19075e-23 -1.92158e-23 -2.51123e-24 3.98314e-24 5.01592e-24 3.83903e-24 2.2729e-24 1.07604e-24 3.86287e-25 7.85617e-26 -1.79235e-26 -2.78354e-26 -1.60061e-26 -5.87131e-27 -1.18368e-27 1.35773e-28 2.24644e-28 9.65158e-29 2.03008e-29 -1.17461e-30 -2.50564e-30 -8.74916e-31 -1.02268e-31 3.77009e-32 2.06293e-32 3.59812e-33 -4.23571e-34 -3.6713e-34 -7.01235e-35 5.33217e-36 5.51703e-36 9.59621e-37 -9.60969e-38 -7.12888e-38 -9.29668e-39 1.74963e-39 7.61959e-40 5.24818e-41 -2.53595e-41 -6.72172e-42 -3.71121e-43 0 0 0 0 0 0 0 0 0 0 0 0 0 0 0 0 0 0 0 0 0 0 0 0 0 0 0 0 0 0 0 0 0 0 0 0 0 0 0 0 0 0 0 0 0 
0 0 0 0 0 0 0 0 0 0 0 0 0 0 0 0 0 0 0 0 0 0 0 0 0 0 0 0 0 0 0 0 0 0 0 0 0 0 0 0 0 0 0 0 0 -8.15582e-43 -1.10298e-41 -3.30422e-41 1.29088e-40 1.2382e-39 1.77889e-39 -1.99476e-38 -1.13391e-37 -3.77027e-38 2.04129e-36 8.6925e-36 -2.11142e-36 -1.57123e-34 -5.93758e-34 7.71668e-35 9.23108e-33 3.65362e-32 2.35813e-32 -3.78746e-31 -1.86225e-30 -3.3014e-30 6.94709e-30 6.39018e-29 1.99306e-28 2.3942e-28 -7.46376e-28 -5.0908e-27 -1.54359e-26 -2.72473e-26 -8.62142e-27 1.32807e-25 5.73152e-25 1.52035e-24 2.9748e-24 4.18192e-24 2.74422e-24 -6.41368e-24 -3.17026e-23 -8.43266e-23 -1.75691e-22 -3.12373e-22 -4.89276e-22 -6.8284e-22 -8.47154e-22 -9.15743e-22 -8.10638e-22 -4.57876e-22 1.9377e-22 1.15573e-21 2.38914e-21 3.80422e-21 5.27008e-21 6.63326e-21 7.74064e-21 8.46285e-21 8.71367e-21 8.46285e-21 7.74064e-21 6.63326e-21 5.27008e-21 3.80422e-21 2.38914e-21 1.15573e-21 1.9377e-22 -4.57876e-22 -8.10638e-22 -9.15743e-22 -8.47154e-22 -6.8284e-22 -4.89276e-22 -3.12373e-22 -1.75691e-22 -8.43266e-23 -3.17026e-23 -6.41368e-24 2.74422e-24 4.18192e-24 2.9748e-24 1.52035e-24 5.73152e-25 1.32807e-25 -8.62142e-27 -2.72473e-26 -1.54359e-26 -5.0908e-27 -7.46376e-28 2.3942e-28 1.99306e-28 6.39018e-29 6.94709e-30 -3.3014e-30 -1.86225e-30 -3.78746e-31 2.35813e-32 3.65362e-32 9.23108e-33 7.71668e-35 -5.93758e-34 -1.57123e-34 -2.11142e-36 8.6925e-36 2.04129e-36 -3.77027e-38 -1.13391e-37 -1.99476e-38 1.77889e-39 1.2382e-39 1.29088e-40 -3.30422e-41 -1.10298e-41 -8.15582e-43 0 0 0 0 0 0 0 0 0 0 0 0 0 0 0 0 0 0 0 0 0 0 0 0 0 0 0 0 0 0 0 0 0 0 0 0 0 0 0 0 0 0 0 0 
0 0 0 0 0 0 0 0 0 0 0 0 0 0 0 0 0 0 0 0 0 0 0 0 0 0 0 0 0 0 0 0 0 0 0 0 0 0 0 0 0 0 0 -0 -1.5864e-42 -1.70114e-41 -3.89419e-41 2.58946e-40 1.87278e-39 1.06502e-39 -3.74531e-38 -1.65046e-37 1.39855e-37 3.81543e-36 1.21528e-35 -2.25246e-35 -3.03247e-34 -8.22574e-34 1.63264e-33 1.93491e-32 5.41312e-32 -5.37472e-32 -9.52291e-31 -3.23422e-30 -1.74876e-30 3.02756e-29 1.4571e-28 2.95634e-28 -1.88583e-28 -3.52081e-27 -1.3126e-26 -2.62752e-26 -9.73228e-27 1.45062e-25 6.53525e-25 1.73926e-24 3.18231e-24 3.26011e-24 -2.96173e-24 -2.54225e-23 -7.93898e-23 -1.81759e-22 -3.40521e-22 -5.35954e-22 -6.95584e-22 -6.69871e-22 -2.19756e-22 9.71921e-22 3.25825e-21 6.95844e-21 1.22753e-20 1.92237e-20 2.75927e-20 3.69565e-20 4.67314e-20 5.62641e-20 6.4923e-20 7.21716e-20 7.76068e-20 8.09636e-20 8.20978e-20 8.09636e-20 7.76068e-20 7.21716e-20 6.4923e-20 5.62641e-20 4.67314e-20 3.69565e-20 2.75927e-20 1.92237e-20 1.22753e-20 6.95844e-21 3.25825e-21 9.71921e-22 -2.19756e-22 -6.69871e-22 -6.95584e-22 -5.35954e-22 -3.40521e-22 -1.81759e-22 -7.93898e-23 -2.54225e-23 -2.96173e-24 3.26011e-24 3.18231e-24 1.73926e-24 6.53525e-25 1.45062e-25 -9.73228e-27 -2.62752e-26 -1.3126e-26 -3.52081e-27 -1.88583e-28 2.95634e-28 1.4571e-28 3.02756e-29 -1.74876e-30 -3.23422e-30 -9.52291e-31 -5.37472e-32 5.41312e-32 1.93491e-32 1.63264e-33 -8.22574e-34 -3.03247e-34 -2.25246e-35 1.21528e-35 3.81543e-36 1.39855e-37 -1.65046e-37 -3.74531e-38 1.06502e-39 1.87278e-39 2.58946e-40 -3.89419e-41 -1.70114e-41 -1.5864e-42 -0 0 0 0 0 0 0 0 0 0 0 0 0 0 0 0 0 0 0 0 0 0 0 0 0 0 0 0 0 0 0 0 0 0 0 0 0 0 0 0 0 0 0 
0 0 0 0 0 0 0 0 0 0 0 0 0 0 0 0 0 0 0 0 0 0 0 0 0 0 0 0 0 0 0 0 0 0 0 0 0 0 0 -0 -0 0 -1.39108e-44 -2.80719e-42 -2.4974e-41 -4.02439e-41 4.58872e-40 2.65026e-39 -9.602e-40 -6.37941e-38 -2.19373e-37 5.17079e-37 6.45495e-36 1.47235e-35 -6.48997e-35 -5.21637e-34 -9.22421e-34 5.07715e-33 3.50952e-32 6.31995e-32 -2.59393e-31 -1.94271e-30 -4.4968e-30 6.17182e-30 7.99025e-29 2.61656e-28 2.25116e-28 -1.74213e-27 -9.48518e-27 -2.39293e-26 -1.918e-26 1.11327e-25 6.04759e-25 1.71136e-24 3.04518e-24 1.94077e-24 -9.24896e-24 -4.56123e-23 -1.2812e-22 -2.71462e-22 -4.53597e-22 -5.62891e-22 -3.29144e-22 7.38833e-22 3.37033e-21 8.46105e-21 1.68861e-20 2.92132e-20 4.53839e-20 6.44763e-20 8.46653e-20 1.03451e-19 1.18144e-19 1.26496e-19 1.273e-19 1.20791e-19 1.08701e-19 9.39331e-20 7.99553e-20 7.00199e-20 6.64311e-20 7.00199e-20 7.99553e-20 9.39331e-20 1.08701e-19 1.20791e-19 1.273e-19 1.26496e-19 1.18144e-19 1.03451e-19 8.46653e-20 6.44763e-20 4.53839e-20 2.92132e-20 1.68861e-20 8.46105e-21 3.37033e-21 7.38833e-22 -3.29144e-22 -5.62891e-22 -4.53597e-22 -2.71462e-22 -1.2812e-22 -4.56123e-23 -9.24896e-24 1.94077e-24 3.04518e-24 1.71136e-24 6.04759e-25 1.11327e-25 -1.918e-26 -2.39293e-26 -9.48518e-27 -1.74213e-27 2.25116e-28 2.61656e-28 7.99025e-29 6.17182e-30 -4.4968e-30 -1.94271e-30 -2.59393e-31 6.31995e-32 3.50952e-32 5.07715e-33 -9.22421e-34 -5.21637e-34 -6.48997e-35 1.47235e-35 6.45495e-36 5.17079e-37 -2.19373e-37 -6.37941e-38 -9.602e-40 2.65026e-39 4.58872e-40 -4.02439e-41 -2.4974e-41 -2.80719e-42 -1.39108e-44 0 -0 -0 0 0 0 0 0 0 0 0 0 0 0 0 0 0 0 0 0 0 0 0 0 0 0 0 0 0 0 0 0 0 0 0 0 0 0 0 0 0 
0 0 0 0 0 0 0 0 0 0 0 0 0 0 0 0 0 0 0 0 0 0 0 0 0 0 0 0 0 0 0 0 0 0 0 0 0 0 -0 0 1.39285e-45 -3.89997e-44 -4.44457e-42 -3.46874e-41 -3.30829e-41 7.44329e-40 3.52012e-39 -4.98052e-39 -1.00463e-37 -2.63537e-37 1.18995e-36 1.00419e-35 1.43705e-35 -1.40012e-34 -8.12673e-34 -6.59324e-34 1.14425e-32 5.63224e-32 4.33831e-32 -6.809e-31 -3.38593e-30 -4.36161e-30 2.68176e-29 1.65262e-28 3.64303e-28 -3.55055e-28 -5.38494e-27 -1.89444e-26 -2.80167e-26 5.26466e-26 4.5643e-25 1.48783e-24 2.8037e-24 1.31087e-24 -1.25356e-23 -5.78066e-23 -1.58222e-22 -3.15493e-22 -4.43879e-22 -2.57268e-22 8.72014e-22 4.01516e-21 1.06286e-20 2.21905e-20 3.94347e-20 6.12296e-20 8.3367e-20 9.77219e-20 9.23047e-20 5.25751e-20 -3.59973e-20 -1.84593e-19 -3.97755e-19 -6.71053e-19 -9.904e-19 -1.33324e-18 -1.67131e-18 -1.97439e-18 -2.21422e-18 -2.36798e-18 -2.42094e-18 -2.36798e-18 -2.21422e-18 -1.97439e-18 -1.67131e-18 -1.33324e-18 -9.904e-19 -6.71053e-19 -3.97755e-19 -1.84593e-19 -3.59973e-20 5.25751e-20 9.23047e-20 9.77219e-20 8.3367e-20 6.12296e-20 3.94347e-20 2.21905e-20 1.06286e-20 4.01516e-21 8.72014e-22 -2.57268e-22 -4.43879e-22 -3.15493e-22 -1.58222e-22 -5.78066e-23 -1.25356e-23 1.31087e-24 2.8037e-24 1.48783e-24 4.5643e-25 5.26466e-26 -2.80167e-26 -1.89444e-26 -5.38494e-27 -3.55055e-28 3.64303e-28 1.65262e-28 2.68176e-29 -4.36161e-30 -3.38593e-30 -6.809e-31 4.33831e-32 5.63224e-32 1.14425e-32 -6.59324e-34 -8.12673e-34 -1.40012e-34 1.43705e-35 1.00419e-35 1.18995e-36 -2.63537e-37 -1.00463e-37 -4.98052e-39 3.52012e-39 7.44329e-40 -3.30829e-41 -3.46874e-41 -4.44457e-42 -3.89997e-44 1.39285e-45 0 -0 0 0 0 0 0 0 0 0 0 0 0 0 0 0 0 0 0 0 0 0 0 0 0 0 0 0 0 0 0 0 0 0 0 0 0 0 0 
0 0 0 0 0 0 0 0 0 0 0 0 0 0 0 0 0 0 0 0 0 0 0 0 0 0 0 0 0 0 0 0 0 0 0 0 0 -0 0 6.27502e-44 9.90058e-44 -6.63618e-42 -4.57281e-41 -1.35722e-41 1.12481e-39 4.39474e-39 -1.17135e-38 -1.47991e-37 -2.78627e-37 2.25757e-36 1.44994e-35 8.1703e-36 -2.58807e-34 -1.15457e-33 3.13068e-34 2.17791e-32 8.04283e-32 -3.78535e-32 -1.41338e-30 -5.11485e-30 -4.3062e-31 6.82304e-29 2.85116e-28 3.28307e-28 -1.99899e-27 -1.19781e-26 -2.88554e-26 -1.1283e-27 2.66931e-25 1.12875e-24 2.50447e-24 1.65867e-24 -1.13115e-23 -5.75791e-23 -1.62053e-22 -3.10388e-22 -3.39104e-22 2.55967e-22 2.54325e-21 8.23818e-21 1.93192e-20 3.67577e-20 5.80489e-20 7.36531e-20 6.31827e-20 -7.0725e-21 -1.83321e-19 -5.18705e-19 -1.06299e-18 -1.84957e-18 -2.88331e-18 -4.13375e-18 -5.53614e-18 -7.0011e-18 -8.43023e-18 -9.73319e-18 -1.0841e-17 -1.17122e-17 -1.23307e-17 -1.26973e-17 -1.28183e-17 -1.26973e-17 -1.23307e-17 -1.17122e-17 -1.0841e-17 -9.73319e-18 -8.43023e-18 -7.0011e-18 -5.53614e-18 -4.13375e-18 -2.88331e-18 -1.84957e-18 -1.06299e-18 -5.18705e-19 -1.83321e-19 -7.0725e-21 6.31827e-20 7.36531e-20 5.80489e-20 3.67577e-20 1.93192e-20 8.23818e-21 2.54325e-21 2.55967e-22 -3.39104e-22 -3.10388e-22 -1.62053e-22 -5.75791e-23 -1.13115e-23 1.65867e-24 2.50447e-24 1.12875e-24 2.66931e-25 -1.1283e-27 -2.88554e-26 -1.19781e-26 -1.99899e-27 3.28307e-28 2.85116e-28 6.82304e-29 -4.3062e-31 -5.11485e-30 -1.41338e-30 -3.78535e-32 8.04283e-32 2.17791e-32 3.13068e-34 -1.15457e-33 -2.58807e-34 8.1703e-36 1.44994e-35 2.25757e-36 -2.78627e-37 -1.47991e-37 -1.17135e-38 4.39474e-39 1.12481e-39 -1.35722e-41 -4.57281e-41 -6.63618e-42 9.90058e-44 6.27502e-44 0 -0 0 0 0 0 0 0 0 0 0 0 0 0 0 0 0 0 0 0 0 0 0 0 0 0 0 0 0 0 0 0 0 0 0 0 0 0 
0 0 0 0 0 0 0 0 0 0 0 0 0 0 0 0 0 0 0 0 0 0 0 0 0 0 0 0 0 0 0 0 0 0 0 0 -0 0 1.46568e-43 2.02403e-43 -9.45571e-42 -5.79305e-41 2.19796e-41 1.6022e-39 5.15513e-39 -2.17951e-38 -2.05569e-37 -2.41046e-37 3.80486e-36 1.95403e-35 -7.50191e-36 -4.30055e-34 -1.49574e-33 2.43562e-33 3.68717e-32 1.01256e-31 -2.24444e-31 -2.5306e-30 -6.62373e-30 1.09124e-29 1.38009e-28 4.14481e-28 -7.87122e-29 -5.39817e-27 -2.14301e-26 -2.96138e-26 9.98996e-26 7.09686e-25 2.04644e-24 2.37855e-24 -6.81762e-24 -4.66296e-23 -1.44052e-22 -2.79022e-22 -2.3483e-22 6.73443e-22 3.89482e-21 1.1602e-20 2.55898e-20 4.41198e-20 5.59156e-20 3.15941e-20 -8.50786e-20 -3.81194e-19 -9.67505e-19 -1.95486e-18 -3.41418e-18 -5.32808e-18 -7.54974e-18 -9.78814e-18 -1.16341e-17 -1.26305e-17 -1.23729e-17 -1.06177e-17 -7.36568e-18 -2.89702e-18 2.25426e-18 7.38388e-18 1.17397e-17 1.46579e-17 1.56844e-17 1.46579e-17 1.17397e-17 7.38388e-18 2.25426e-18 -2.89702e-18 -7.36568e-18 -1.06177e-17 -1.23729e-17 -1.26305e-17 -1.16341e-17 -9.78814e-18 -7.54974e-18 -5.32808e-18 -3.41418e-18 -1.95486e-18 -9.67505e-19 -3.81194e-19 -8.50786e-20 3.15941e-20 5.59156e-20 4.41198e-20 2.55898e-20 1.1602e-20 3.89482e-21 6.73443e-22 -2.3483e-22 -2.79022e-22 -1.44052e-22 -4.66296e-23 -6.81762e-24 2.37855e-24 2.04644e-24 7.09686e-25 9.98996e-26 -2.96138e-26 -2.14301e-26 -5.39817e-27 -7.87122e-29 4.14481e-28 1.38009e-28 1.09124e-29 -6.62373e-30 -2.5306e-30 -2.24444e-31 1.01256e-31 3.68717e-32 2.43562e-33 -1.49574e-33 -4.30055e-34 -7.50191e-36 1.95403e-35 3.80486e-36 -2.41046e-37 -2.05569e-37 -2.17951e-38 5.15513e-39 1.6022e-39 2.19796e-41 -5.79305e-41 -9.45571e-42 2.02403e-43 1.46568e-43 0 -0 0 0 0 0 0 0 0 0 0 0 0 0 0 0 0 0 0 0 0 0 0 0 0 0 0 0 0 0 0 0 0 0 0 0 0 
0 0 0 0 0 0 0 0 0 0 0 0 0 0 0 0 0 0 0 0 0 0 0 0 0 0 0 0 0 0 0 0 0 0 0 -0 0 2.38913e-43 2.75239e-43 -1.27099e-41 -7.04765e-41 7.61433e-41 2.16801e-39 5.66679e-39 -3.56538e-38 -2.70892e-37 -1.25396e-37 5.88376e-36 2.4652e-35 -3.65469e-35 -6.57766e-34 -1.752e-33 6.19339e-33 5.69002e-32 1.08481e-31 -5.67031e-31 -4.04548e-30 -6.96036e-30 3.42288e-29 2.39623e-28 4.90566e-28 -1.20038e-27 -1.11508e-26 -3.14254e-26 -2.1887e-27 3.32534e-25 1.41031e-24 2.67153e-24 -1.71614e-24 -3.01961e-23 -1.12423e-22 -2.39751e-22 -1.97158e-22 7.71742e-22 4.32919e-21 1.28373e-20 2.72649e-20 4.12838e-20 2.99674e-20 -6.60422e-20 -3.54704e-19 -9.9156e-19 -2.14435e-18 -3.90608e-18 -6.15432e-18 -8.38229e-18 -9.55796e-18 -8.08542e-18 -1.93174e-18 1.10625e-17 3.27336e-17 6.41138e-17 1.05048e-16 1.54023e-16 2.08256e-16 2.64024e-16 3.17141e-16 3.63473e-16 3.99391e-16 4.22104e-16 4.29872e-16 4.22104e-16 3.99391e-16 3.63473e-16 3.17141e-16 2.64024e-16 2.08256e-16 1.54023e-16 1.05048e-16 6.41138e-17 3.27336e-17 1.10625e-17 -1.93174e-18 -8.08542e-18 -9.55796e-18 -8.38229e-18 -6.15432e-18 -3.90608e-18 -2.14435e-18 -9.9156e-19 -3.54704e-19 -6.60422e-20 2.99674e-20 4.12838e-20 2.72649e-20 1.28373e-20 4.32919e-21 7.71742e-22 -1.97158e-22 -2.39751e-22 -1.12423e-22 -3.01961e-23 -1.71614e-24 2.67153e-24 1.41031e-24 3.32534e-25 -2.1887e-27 -3.14254e-26 -1.11508e-26 -1.20038e-27 4.90566e-28 2.39623e-28 3.42288e-29 -6.96036e-30 -4.04548e-30 -5.67031e-31 1.08481e-31 5.69002e-32 6.19339e-33 -1.752e-33 -6.57766e-34 -3.65469e-35 2.4652e-35 5.88376e-36 -1.25396e-37 -2.70892e-37 -3.56538e-38 5.66679e-39 2.16801e-39 7.61433e-41 -7.04765e-41 -1.27099e-41 2.75239e-43 2.38913e-43 0 -0 0 0 0 0 0 0 0 0 0 0 0 0 0 0 0 0 0 0 0 0 0 0 0 0 0 0 0 0 0 0 0 0 0 0 
0 0 0 0 0 0 0 0 0 0 0 0 0 0 0 0 0 0 0 0 0 0 0 0 0 0 0 0 0 0 0 0 0 -0 -0 0 3.22996e-43 2.33508e-43 -1.63665e-41 -8.24995e-41 1.49915e-40 2.80409e-39 5.80008e-39 -5.34037e-38 -3.40311e-37 9.14897e-38 8.49777e-36 2.91328e-35 -8.25367e-35 -9.3906e-34 -1.81114e-33 1.20382e-32 8.11387e-32 8.78641e-32 -1.11442e-30 -5.86932e-30 -4.69768e-30 7.42772e-29 3.67755e-28 4.03025e-28 -3.45189e-27 -1.93675e-26 -3.60479e-26 8.24121e-26 7.49188e-25 2.23241e-24 1.71976e-24 -1.41869e-23 -7.50095e-23 -1.93984e-22 -2.13738e-22 5.57444e-22 3.79553e-21 1.19118e-20 2.51372e-20 3.28094e-20 -3.79902e-21 -1.75009e-19 -6.3892e-19 -1.59862e-18 -3.19198e-18 -5.24562e-18 -6.88118e-18 -6.04165e-18 8.90014e-19 1.91333e-17 5.49866e-17 1.14661e-16 2.02648e-16 3.20064e-16 4.63527e-16 6.25067e-16 7.93251e-16 9.55307e-16 1.09967e-15 1.21822e-15 1.30749e-15 1.36865e-15 1.40615e-15 1.4256e-15 1.43151e-15 1.4256e-15 1.40615e-15 1.36865e-15 1.30749e-15 1.21822e-15 1.09967e-15 9.55307e-16 7.93251e-16 6.25067e-16 4.63527e-16 3.20064e-16 2.02648e-16 1.14661e-16 5.49866e-17 1.91333e-17 8.90014e-19 -6.04165e-18 -6.88118e-18 -5.24562e-18 -3.19198e-18 -1.59862e-18 -6.3892e-19 -1.75009e-19 -3.79902e-21 3.28094e-20 2.51372e-20 1.19118e-20 3.79553e-21 5.57444e-22 -2.13738e-22 -1.93984e-22 -7.50095e-23 -1.41869e-23 1.71976e-24 2.23241e-24 7.49188e-25 8.24121e-26 -3.60479e-26 -1.93675e-26 -3.45189e-27 4.03025e-28 3.67755e-28 7.42772e-29 -4.69768e-30 -5.86932e-30 -1.11442e-30 8.78641e-32 8.11387e-32 1.20382e-32 -1.81114e-33 -9.3906e-34 -8.25367e-35 2.91328e-35 8.49777e-36 9.14897e-38 -3.40311e-37 -5.34037e-38 5.80008e-39 2.80409e-39 1.49915e-40 -8.24995e-41 -1.63665e-41 2.33508e-43 3.22996e-43 0 -0 -0 0 0 0 0 0 0 0 0 0 0 0 0 0 0 0 0 0 0 0 0 0 0 0 0 0 0 0 0 0 0 0 0 