<?xml version="1.0"?>
<VTKFile type="ImageData" version="0.1" byte_order="LittleEndian">
<ImageData WholeExtent="0 199 0 199 0 0" Origin="0 0 0" Spacing="15 15 0">
<Piece Extent="0 199 0 199 0 0">
<PointData Scalars="Amplitude">
<DataArray type="Float32" Name="Amplitude" format="ascii">
0 0 0 0 0 0 0 0 0 0 0 0 0 0 0 0 0 0 0 0 0 0 0 0 0 0 0 0 0 0 0 0 0 0 0 0 0 0 0 0 0 0 0 0 0 0 0 0 0 0 0 0 0 0 0 0 0 0 0 0 0 0 0 0 0 0 0 0 0 0 0 0 0 0 0 0 0 0 0 0 0 0 0 0 0 0 0 0 0 0 0 0 0 0 0 0 0 0 0 0 0 0 0 0 0 0 0 0 0 0 0 0 0 0 0 0 0 0 0 0 0 0 0 0 0 0 0 0 0 0 0 0 0 0 0 0 0 0 0 0 0 0 0 0 0 0 0 0 0 0 0 0 0 0 0 0 0 0 0 0 0 0 0 0 0 0 0 0 0 0 0 0 0 0 0 0 0 0 0 0 0 0 0 0 0 0 0 0 0 0 0 0 0 0 0 0 0 0 0 0 
0 0 0 0 0 0 0 0 0 0 0 0 0 0 0 0 0 0 0 0 0 0 0 0 0 0 0 0 0 0 0 0 0 0 0 0 0 0 0 0 0 0 0 0 0 0 0 0 0 0 0 0 0 0 0 0 0 0 0 0 0 0 0 0 0 0 0 0 0 0 0 0 0 0 0 0 0 0 0 0 0 0 0 0 0 0 0 0 0 0 0 0 0 0 0 0 0 0 0 0 0 0 0 0 0 0 0 0 0 0 0 0 0 0 0 0 0 0 0 0 0 0 0 0 0 0 0 0 0 0 0 0 0 0 0 0 0 0 0 0 0 0 0 0 0 0 0 0 0 0 0 0 0 0 0 0 0 0 0 0 0 0 0 0 0 0 0 0 0 0 0 0 0 0 0 0 0 0 0 0 0 0 0 0 0 0 0 0 0 0 0 0 0 0 0 0 0 0 0 0 
0 0 7.09202e-08 -7.47445e-08 -5.38912e-07 -8.66966e-07 2.61467e-07 2.23846e-06 7.59649e-07 -5.57813e-06 -7.82075e-06 2.15555e-06 1.18187e-05 2.48069e-07 -2.37026e-05 -2.47658e-05 3.52007e-06 1.99675e-05 -5.3624e-06 -4.27474e-05 -4.2691e-05 -5.25285e-06 2.1712e-05 7.71786e-06 -2.36863e-05 -2.8303e-05 6.24928e-06 5.13935e-05 7.2644e-05 6.50677e-05 5.41875e-05 6.74557e-05 0.000107915 0.000153507 0.000178317 0.000174076 0.000154227 0.000140267 0.000143928 0.000159304 0.000168954 0.000157364 0.000121414 7.15195e-05 2.42571e-05 -7.61628e-06 -2.14591e-05 -2.43892e-05 -2.77284e-05 -4.0252e-05 -6.387e-05 -9.33012e-05 -0.000119089 -0.000132049 -0.000127083 -0.00010501 -7.19778e-05 -3.70317e-05 -8.86873e-06 6.92444e-06 9.16458e-06 6.7988e-07 -1.3235e-05 -2.68211e-05 -3.55147e-05 -3.6894e-05 -3.08193e-05 -1.89855e-05 -4.15334e-06 1.06573e-05 2.28272e-05 3.05706e-05 3.30899e-05 3.05027e-05 2.36359e-05 1.37695e-05 2.36412e-06 -9.19317e-06 -1.97536e-05 -2.84945e-05 -3.49117e-05 -3.88101e-05 -4.02438e-05 -3.94629e-05 -3.68543e-05 -3.28653e-05 -2.79353e-05 -2.24692e-05 -1.68239e-05 -1.12724e-05 -6.00479e-06 -1.16372e-06 3.1584e-06 6.91002e-06 1.00932e-05 1.2716e-05 1.48046e-05 1.63865e-05 1.74912e-05 1.81402e-05 1.83553e-05 1.81402e-05 1.74914e-05 1.63858e-05 1.48025e-05 1.27122e-05 1.00877e-05 6.90222e-06 3.14719e-06 -1.17842e-06 -6.02103e-06 -1.12864e-05 -1.68323e-05 -2.24711e-05 -2.79333e-05 -3.28631e-05 -3.6852e-05 -3.94583e-05 -4.02357e-05 -3.88002e-05 -3.49029e-05 -2.84896e-05 -1.97546e-05 -9.19686e-06 2.36523e-06 1.37843e-05 2.36782e-05 3.05802e-05 3.3131e-05 3.0274e-05 2.14623e-05 6.93641e-06 -1.18551e-05 -3.17837e-05 -4.79074e-05 -5.42892e-05 -4.62546e-05 -2.35818e-05 7.28025e-06 3.43137e-05 4.50645e-05 3.31837e-05 1.81328e-06 -3.89836e-05 -7.84572e-05 -0.000109671 -0.000129137 -0.000134151 -0.000122788 -9.7398e-05 -6.66519e-05 -4.18543e-05 -2.95864e-05 -2.71356e-05 -2.43773e-05 -1.00253e-05 2.19888e-05 6.86446e-05 0.000117898 0.000153801 0.00016567 0.000156015 0.000140296 0.000136448 0.000150692 0.000171056 0.000175614 0.000150832 0.000105285 6.5171e-05 5.24744e-05 6.38309e-05 7.15553e-05 5.0177e-05 5.54284e-06 -2.86691e-05 -2.41829e-05 6.86215e-06 2.07492e-05 -5.87996e-06 -4.29086e-05 -4.29691e-05 -5.95276e-06 1.91828e-05 3.0114e-06 -2.48612e-05 -2.36944e-05 8.97707e-08 1.15718e-05 2.01614e-06 -7.82269e-06 -5.53026e-06 8.00203e-07 2.23682e-06 1.74767e-07 -9.81267e-07 -4.59241e-07 -1.1644e-07 0 0 
0 0 -7.47445e-08 -4.58737e-07 -1.09162e-06 -4.18591e-08 2.23173e-06 7.02855e-07 -6.82271e-06 -9.30451e-06 3.5202e-06 1.34905e-05 -6.84551e-06 -3.8169e-05 -2.91462e-05 1.37767e-05 1.8195e-05 -4.05967e-05 -8.7974e-05 -5.80493e-05 5.24222e-06 1.13067e-05 -4.85111e-05 -9.24789e-05 -5.87032e-05 2.23612e-05 7.45977e-05 6.6939e-05 4.11305e-05 5.94265e-05 0.000138796 0.000238359 0.000303138 0.000314414 0.000300648 0.0003061 0.000350402 0.000413609 0.000454574 0.000443233 0.000380892 0.000296005 0.000222511 0.00017808 0.000156021 0.000133423 8.78489e-05 1.14576e-05 -8.49759e-05 -0.000178561 -0.00024617 -0.000274854 -0.000266082 -0.000232787 -0.000192077 -0.000157966 -0.00013728 -0.000129345 -0.000128327 -0.000126559 -0.000117531 -9.77708e-05 -6.76291e-05 -3.09509e-05 6.19057e-06 3.72491e-05 5.69769e-05 6.26083e-05 5.43109e-05 3.47649e-05 8.33096e-06 -2.00211e-05 -4.5712e-05 -6.52293e-05 -7.65128e-05 -7.89746e-05 -7.32604e-05 -6.08743e-05 -4.38098e-05 -2.41692e-05 -3.92993e-06 1.52555e-05 3.21652e-05 4.6008e-05 5.64164e-05 6.33689e-05 6.7111e-05 6.80495e-05 6.66955e-05 6.36061e-05 5.92927e-05 5.41997e-05 4.87408e-05 4.32803e-05 3.81186e-05 3.34704e-05 2.94889e-05 2.6292e-05 2.39517e-05 2.25358e-05 2.20654e-05 2.25355e-05 2.3951e-05 2.62896e-05 2.94839e-05 3.34613e-05 3.81042e-05 4.32581e-05 4.87095e-05 5.41629e-05 5.92582e-05 6.35816e-05 6.66842e-05 6.8048e-05 6.71143e-05 6.33755e-05 5.64301e-05 4.60288e-05 3.21874e-05 1.52729e-05 -3.91995e-06 -2.41691e-05 -4.38147e-05 -6.08715e-05 -7.32369e-05 -7.89033e-05 -7.63549e-05 -6.50641e-05 -4.60394e-05 -2.22127e-05 1.61961e-06 1.97909e-05 2.77819e-05 2.47323e-05 1.47874e-05 5.39845e-06 2.45008e-06 4.7729e-06 3.15786e-06 -1.3384e-05 -4.76737e-05 -8.96806e-05 -0.000123301 -0.000140294 -0.000148375 -0.000164269 -0.000197632 -0.00024121 -0.000275595 -0.000281924 -0.000250679 -0.000183249 -9.12215e-05 4.94373e-06 8.22752e-05 0.000127948 0.000149246 0.00017013 0.000214546 0.000288392 0.000372946 0.000434551 0.000445775 0.000405559 0.000343217 0.000299263 0.000293895 0.000308171 0.000298015 0.000234446 0.000135596 5.64478e-05 3.83685e-05 6.43932e-05 7.2421e-05 2.09086e-05 -5.92757e-05 -9.27827e-05 -4.93881e-05 9.74316e-06 3.72942e-06 -5.89016e-05 -8.84728e-05 -4.1448e-05 1.69724e-05 1.28606e-05 -2.94136e-05 -3.82135e-05 -7.12823e-06 1.30908e-05 3.35837e-06 -9.19736e-06 -6.71392e-06 6.11124e-07 2.0301e-06 3.32077e-09 -5.92258e-07 -4.91642e-07 0 0 
0 0 -5.38912e-07 -1.09162e-06 -1.0981e-06 2.87454e-06 4.22249e-06 -6.97711e-06 -1.87911e-05 -1.70466e-06 3.03088e-05 1.06442e-05 -6.17436e-05 -7.35787e-05 2.11849e-05 7.63007e-05 -3.16759e-05 -0.000172962 -0.000141037 2.16993e-05 7.5489e-05 -6.66993e-05 -0.000219744 -0.000186915 -9.33193e-06 0.000110407 6.34418e-05 -5.58007e-05 -7.50205e-05 6.7917e-05 0.000274519 0.000398732 0.000388642 0.000321502 0.000318752 0.00043422 0.000613573 0.000746611 0.000756383 0.000651497 0.000509474 0.000414561 0.000400281 0.000434155 0.000446838 0.000380102 0.000221951 1.03837e-05 -0.000190723 -0.000325507 -0.000371023 -0.000342981 -0.000283122 -0.000236667 -0.000231723 -0.000269453 -0.000327967 -0.000375211 -0.000383854 -0.000341648 -0.000253837 -0.000138726 -2.05694e-05 7.7753e-05 0.000139907 0.000158719 0.000136245 8.19978e-05 1.00316e-05 -6.44782e-05 -0.000128079 -0.000171152 -0.00018883 -0.000180842 -0.00015067 -0.000104334 -4.90089e-05 8.33679e-06 6.17871e-05 0.000107038 0.000141274 0.000163261 0.000173042 0.000171677 0.000160959 0.00014303 0.00012004 9.39965e-05 6.67181e-05 3.9624e-05 1.36881e-05 -1.03701e-05 -3.20653e-05 -5.10463e-05 -6.72382e-05 -8.06281e-05 -9.13395e-05 -9.94741e-05 -0.000105192 -0.000108545 -0.000109655 -0.000108546 -0.000105196 -9.94803e-05 -9.13496e-05 -8.06448e-05 -6.72661e-05 -5.10907e-05 -3.21226e-05 -1.04282e-05 1.3646e-05 3.9604e-05 6.67162e-05 9.40013e-05 0.000120047 0.000143049 0.000160994 0.000171718 0.000173074 0.000163276 0.000141273 0.000107023 6.17794e-05 8.35907e-06 -4.89342e-05 -0.000104134 -0.000150317 -0.000180776 -0.000190663 -0.000178511 -0.000146899 -0.000101374 -4.77106e-05 1.08067e-05 7.31038e-05 0.00013492 0.000181631 0.000186927 0.000124779 -8.75724e-06 -0.000180871 -0.00033185 -0.000409123 -0.00040046 -0.000338694 -0.000274367 -0.000243005 -0.000253647 -0.000296592 -0.000349493 -0.000376316 -0.000334821 -0.000202064 1.30527e-06 0.000214597 0.000370594 0.000434179 0.000421152 0.00038876 0.000403057 0.0004962 0.000637305 0.00074355 0.000735812 0.00060347 0.000423706 0.00030857 0.000313293 0.000382926 0.0003944 0.000270238 6.36234e-05 -7.8208e-05 -5.71194e-05 6.13638e-05 0.000107993 -1.02643e-05 -0.000186 -0.000218788 -6.77237e-05 7.27422e-05 1.94362e-05 -0.000141549 -0.000172933 -3.27749e-05 7.44082e-05 2.00414e-05 -7.36587e-05 -6.179e-05 1.01438e-05 2.99181e-05 -1.63546e-06 -1.87055e-05 -7.25959e-06 4.0032e-06 3.48268e-06 1.87609e-09 -1.01058e-06 0 0 
0 0 -8.66966e-07 -4.18591e-08 2.87454e-06 3.20168e-06 -7.86568e-06 -1.78448e-05 3.16339e-06 3.34592e-05 -3.08158e-06 -8.53791e-05 -6.37583e-05 6.86743e-05 7.498e-05 -0.000131749 -0.000259611 -8.88338e-05 0.000123941 1.98952e-05 -0.000296005 -0.000400697 -0.000163652 9.08913e-05 4.42787e-05 -0.000218166 -0.000352247 -0.000174244 0.000157794 0.000349452 0.000286793 0.000129772 0.000127766 0.000375294 0.000739393 0.000994453 0.00101769 0.000874455 0.000743056 0.000763404 0.000934678 0.00112837 0.00118882 0.0010388 0.000721566 0.000364164 9.67007e-05 -1.86312e-05 -1.04039e-05 3.1158e-05 1.04055e-05 -0.00012413 -0.000358918 -0.000628015 -0.000846297 -0.000944874 -0.000894692 -0.000713088 -0.000454624 -0.000191346 1.11788e-05 0.000112584 0.000106169 1.58642e-05 -0.000115841 -0.00024268 -0.000327696 -0.000350184 -0.000307468 -0.000211407 -8.30561e-05 5.34121e-05 0.000175885 0.000267607 0.000319015 0.000327592 0.000296629 0.000233636 0.000148629 5.2162e-05 -4.61454e-05 -0.000138408 -0.000219028 -0.000284367 -0.000332806 -0.000364321 -0.000380215 -0.000382491 -0.000373642 -0.00035649 -0.000333682 -0.000307457 -0.00027991 -0.000252672 -0.000227142 -0.00020423 -0.000184608 -0.000168847 -0.00015734 -0.000150381 -0.000148089 -0.000150383 -0.000157348 -0.000168862 -0.00018463 -0.00020427 -0.00022721 -0.000252765 -0.000280005 -0.000307523 -0.000333706 -0.000356484 -0.000373625 -0.000382466 -0.000380173 -0.000364256 -0.000332737 -0.000284325 -0.000219018 -0.000138417 -4.61712e-05 5.21459e-05 0.000148649 0.000233728 0.000296923 0.000328182 0.000319278 0.000265003 0.000164503 2.32764e-05 -0.000143515 -0.000307791 -0.000428273 -0.000459211 -0.000370472 -0.000172057 7.34728e-05 0.00026953 0.000331823 0.000234409 1.78034e-05 -0.000247411 -0.000507171 -0.000734636 -0.000902309 -0.000962773 -0.000874354 -0.000649627 -0.00036809 -0.000131634 -4.49625e-06 1.32209e-05 -2.39198e-05 -2.97871e-05 8.09753e-05 0.00034353 0.000701584 0.00102134 0.00117015 0.00110636 0.000912339 0.000744253 0.000726413 0.000857476 0.00100003 0.000978899 0.000728104 0.000367213 0.000120285 0.000122093 0.000280747 0.000347059 0.000158934 -0.000171721 -0.000348036 -0.0002161 4.31975e-05 8.92385e-05 -0.000162823 -0.000397974 -0.000295125 1.70468e-05 0.000120056 -9.01267e-05 -0.000258732 -0.00013195 7.27137e-05 6.6549e-05 -6.41814e-05 -8.49981e-05 -3.12928e-06 3.2945e-05 2.62982e-06 -1.80063e-05 -7.24964e-06 4.14866e-06 2.22889e-06 3.83721e-07 0 0 
0 0 2.61467e-07 2.23173e-06 4.22249e-06 -7.86568e-06 -1.98243e-05 5.03841e-06 4.16754e-05 -8.23602e-06 -0.000114009 -6.72626e-05 0.000119728 8.42692e-05 -0.000243093 -0.000355394 -1.2482e-05 0.000231053 -0.000105713 -0.000600017 -0.000554584 -5.86089e-05 0.000163768 -0.000202114 -0.000673575 -0.000658915 -0.000179146 0.000233798 0.000187843 -0.000161954 -0.000334202 -4.20638e-05 0.000546656 0.00101415 0.00109602 0.000894019 0.000745136 0.000912153 0.00137404 0.00186412 0.00208717 0.00192941 0.00151479 0.00109481 0.000873647 0.000889831 0.00101391 0.00104657 0.000842273 0.000385631 -0.000210506 -0.000769572 -0.00113658 -0.00124249 -0.00112137 -0.000880745 -0.000645424 -0.000506155 -0.000493568 -0.000580625 -0.000706169 -0.00080398 -0.000823015 -0.000738815 -0.00055555 -0.000302011 -2.22458e-05 0.000235112 0.000427562 0.000527644 0.000526477 0.00043317 0.000270312 6.80675e-05 -0.000142242 -0.000332972 -0.000483305 -0.000581022 -0.000622092 -0.000609831 -0.000551628 -0.000458125 -0.000340707 -0.000210591 -7.7673e-05 5.0132e-05 0.000167285 0.000270191 0.000356786 0.000426911 0.000481664 0.000522516 0.000551499 0.000570581 0.000582066 0.000588075 0.000590629 0.000590952 0.000590422 0.000589534 0.000589168 0.000589524 0.000590403 0.00059092 0.000590572 0.00058797 0.000581915 0.000570428 0.000551396 0.000522484 0.000481688 0.000426957 0.00035685 0.00027028 0.000167405 5.02516e-05 -7.76144e-05 -0.000210593 -0.000340738 -0.000458153 -0.000551654 -0.000609817 -0.000621968 -0.000580589 -0.000482313 -0.000332223 -0.0001456 5.11391e-05 0.000223206 0.000335576 0.000366816 0.000322595 0.000237122 0.00015423 9.30612e-05 2.49391e-05 -0.000109589 -0.000340656 -0.000614727 -0.000810002 -0.000828279 -0.000690521 -0.000536296 -0.000515943 -0.000673374 -0.000929464 -0.00115808 -0.00125413 -0.00114463 -0.000792867 -0.000240234 0.000364943 0.000826523 0.0010218 0.000980065 0.000858162 0.000846917 0.00106494 0.00147863 0.00189369 0.0020575 0.00183757 0.00134563 0.00088328 0.00072146 0.000877586 0.0010831 0.00100089 0.000534093 -4.97313e-05 -0.000335188 -0.000159143 0.000190302 0.000235049 -0.000174273 -0.000649051 -0.000664527 -0.000199349 0.000161478 -5.94343e-05 -0.000550959 -0.000596242 -0.000107017 0.000226458 -1.45691e-05 -0.000354167 -0.000243024 8.14477e-05 0.000117308 -6.71898e-05 -0.000113419 -9.00102e-06 4.06257e-05 5.44986e-06 -1.85463e-05 -8.59316e-06 5.20483e-07 2.75485e-06 0 0 
0 0 2.23846e-06 7.02855e-07 -6.97711e-06 -1.78448e-05 5.03841e-06 4.21208e-05 -1.37849e-05 -0.000129205 -5.60448e-05 0.00016522 5.62429e-05 -0.000381928 -0.000393038 0.000161246 0.000295428 -0.000423167 -0.000975536 -0.00051451 0.000234831 8.98237e-05 -0.000819526 -0.00129371 -0.000761318 5.25416e-05 0.000167807 -0.000474249 -0.00104665 -0.000830234 4.08378e-05 0.000808069 0.000904966 0.000476265 0.000167826 0.000493899 0.00139787 0.0023475 0.0028013 0.00261923 0.00211586 0.00177563 0.00188733 0.00236594 0.00284514 0.00293514 0.00246253 0.00155322 0.000536637 -0.000246343 -0.000611243 -0.000592521 -0.000392833 -0.00026353 -0.000385488 -0.000799571 -0.00140393 -0.00200556 -0.00239855 -0.00243907 -0.00209677 -0.00145824 -0.000688315 2.86846e-05 0.000546498 0.000788139 0.000752628 0.000496014 0.000108691 -0.000311731 -0.000679638 -0.000934515 -0.00104509 -0.00100773 -0.000841918 -0.00058188 -0.000267754 6.0581e-05 0.000367664 0.000626836 0.000821587 0.000944763 0.000997817 0.000986803 0.000922358 0.00081663 0.000682476 0.000530981 0.00037221 0.000214711 6.47411e-05 -7.37395e-05 -0.000197381 -0.000305161 -0.000396232 -0.000471241 -0.00053141 -0.000577263 -0.000609431 -0.0006283 -0.000634403 -0.000628329 -0.000609488 -0.000577358 -0.000531566 -0.00047148 -0.000396486 -0.000305334 -0.000197433 -7.36987e-05 6.48244e-05 0.000214824 0.000372359 0.000531163 0.000682664 0.000816737 0.000922337 0.000986739 0.000997798 0.000944759 0.000821603 0.000626995 0.00036831 6.21677e-05 -0.0002661 -0.000585548 -0.000865087 -0.00107658 -0.00119365 -0.0011859 -0.0010136 -0.000635939 -4.86271e-05 0.00066008 0.00128149 0.00153936 0.00123545 0.000395391 -0.000705454 -0.00169449 -0.00231567 -0.00252717 -0.0024119 -0.00204461 -0.00148377 -0.000862145 -0.000401888 -0.000270392 -0.000426924 -0.000639685 -0.000642558 -0.000268244 0.000498809 0.0014998 0.00241395 0.00289464 0.00279748 0.0023077 0.00183217 0.00173086 0.00207351 0.00257251 0.00275641 0.00231367 0.00137431 0.0004723 0.000144997 0.000458019 0.00089745 0.00080957 4.37007e-05 -0.000829923 -0.00104542 -0.000465878 0.000171287 5.80557e-05 -0.000747408 -0.001276 -0.000809726 8.78877e-05 0.000230729 -0.000510442 -0.000966187 -0.000419973 0.000290041 0.000156145 -0.000392443 -0.000380287 5.45366e-05 0.000162454 -5.716e-05 -0.000129334 -1.35156e-05 4.29026e-05 4.40028e-06 -2.13321e-05 -8.17448e-06 4.82763e-07 0 0 
0 0 7.59649e-07 -6.82271e-06 -1.87911e-05 3.16339e-06 4.16754e-05 -1.37849e-05 -0.000137247 -5.04318e-05 0.000200064 2.88317e-05 -0.000505859 -0.000391377 0.000357383 0.00026964 -0.000859216 -0.00125234 -0.000217837 0.000526612 -0.000367916 -0.0017359 -0.00170543 -0.000426413 0.000288387 -0.000486466 -0.00173518 -0.00193463 -0.000839615 0.000386231 0.000569884 -0.000245752 -0.000968537 -0.000624062 0.000745297 0.00221289 0.0028604 0.00254097 0.00190748 0.00180148 0.00257892 0.00387971 0.00494062 0.00514548 0.00440554 0.00315148 0.00202022 0.00146448 0.00152584 0.00187101 0.00201924 0.00161032 0.000575817 -0.000851785 -0.00226757 -0.00328109 -0.00366687 -0.00342159 -0.00272176 -0.00183449 -0.00102196 -0.000473321 -0.000276421 -0.000413365 -0.000779335 -0.00121695 -0.00156665 -0.00170611 -0.00157808 -0.00119717 -0.000634596 7.28196e-06 0.00062309 0.00112329 0.00144892 0.0015751 0.001507 0.00127266 0.000914245 0.000481257 1.93683e-05 -0.000430103 -0.000836865 -0.00117903 -0.00144527 -0.00163289 -0.00174601 -0.00179292 -0.00178362 -0.00173106 -0.00164785 -0.00154398 -0.00142936 -0.00131222 -0.00119919 -0.00109622 -0.00100813 -0.000936702 -0.000884765 -0.00085232 -0.000841272 -0.000852394 -0.000884923 -0.000936966 -0.00100852 -0.00109665 -0.0011995 -0.00131234 -0.00142932 -0.00154385 -0.00164771 -0.00173086 -0.00178339 -0.00179269 -0.00174585 -0.00163292 -0.00144539 -0.00117906 -0.000836802 -0.000430106 1.95106e-05 0.00048216 0.000916638 0.0012758 0.00150399 0.00154614 0.00135523 0.000910872 0.000248975 -0.000510075 -0.00116406 -0.00149388 -0.00137966 -0.000908489 -0.00036594 -6.85057e-05 -0.000137313 -0.000423427 -0.000689346 -0.000879668 -0.00119684 -0.00185506 -0.00277113 -0.00354628 -0.00377135 -0.0033051 -0.00226861 -0.0008989 0.000502558 0.00156372 0.00199106 0.00181622 0.0014436 0.00139111 0.00196081 0.0030789 0.00431567 0.0050633 0.00487524 0.00381503 0.00250686 0.00173653 0.0018618 0.00250722 0.00282577 0.00217873 0.000723861 -0.000628195 -0.000964735 -0.000244873 0.000568971 0.000394303 -0.000816014 -0.00190053 -0.00170153 -0.000469261 0.000294696 -0.000415222 -0.00168289 -0.00171507 -0.000361772 0.000523371 -0.000213882 -0.00123944 -0.00085257 0.000263491 0.000350579 -0.000389553 -0.000502552 2.61054e-05 0.000195528 -5.07707e-05 -0.000134952 -1.40676e-05 3.75722e-05 1.69981e-06 -1.03327e-05 -7.93094e-06 0 0 
0 0 -5.57813e-06 -9.30451e-06 -1.70466e-06 3.34592e-05 -8.23602e-06 -0.000129205 -5.04318e-05 0.00020966 5.31205e-06 -0.000588724 -0.000349386 0.000540865 0.000136334 -0.00135314 -0.00131932 0.000322987 0.000612208 -0.00131272 -0.00268233 -0.0015413 0.00029105 5.73321e-05 -0.00198874 -0.00319414 -0.00214919 -0.000216481 0.000369192 -0.000902558 -0.00242399 -0.00236992 -0.000575645 0.00148333 0.00225181 0.00152531 0.000493954 0.000574247 0.0021998 0.00455527 0.00630172 0.00659573 0.00561915 0.00432279 0.00369878 0.00413649 0.00524117 0.00615011 0.00607864 0.00475789 0.00252712 0.000110205 -0.00176003 -0.00266329 -0.00261678 -0.00200136 -0.00135655 -0.00114061 -0.00155929 -0.00251404 -0.00366479 -0.00458664 -0.00494502 -0.00459689 -0.00361612 -0.00222535 -0.000713816 0.000655572 0.00168103 0.0022493 0.00233332 0.00198516 0.00130946 0.000440444 -0.000480644 -0.00132751 -0.00200666 -0.00246221 -0.00267057 -0.00264074 -0.00240455 -0.00200735 -0.00150093 -0.000932709 -0.000348839 0.000215328 0.000731959 0.00118658 0.00157006 0.00188065 0.0021223 0.00230322 0.00243072 0.00251569 0.00256611 0.00259198 0.00260379 0.00260654 0.00260488 0.00260165 0.00260034 0.0026015 0.00260455 0.00260598 0.00260309 0.00259142 0.00256585 0.00251572 0.00243089 0.00230345 0.00212256 0.00188093 0.00157033 0.00118684 0.000731974 0.000215146 -0.000348888 -0.000932546 -0.00150093 -0.00200734 -0.00240347 -0.00263738 -0.00266536 -0.00246305 -0.00203924 -0.00144583 -0.000765553 -8.53713e-05 0.000548329 0.00115932 0.00180111 0.00243288 0.0027996 0.00247439 0.0011242 -0.00112235 -0.00356379 -0.00526033 -0.00565714 -0.00492096 -0.00370082 -0.00256423 -0.00174189 -0.00131215 -0.0013964 -0.00198798 -0.00267464 -0.00277344 -0.00183073 7.51148e-05 0.00245202 0.00463555 0.00596978 0.00606573 0.00513602 0.00400437 0.00358147 0.00423119 0.00552442 0.00648994 0.00621234 0.00449527 0.00215037 0.000520174 0.000447255 0.00150351 0.00225175 0.00148539 -0.000579366 -0.00236786 -0.00240044 -0.000860287 0.0004145 -0.000179524 -0.00209738 -0.00313633 -0.00195111 6.66678e-05 0.000295832 -0.00151583 -0.00264319 -0.00128845 0.000612152 0.000320895 -0.00130756 -0.00134095 0.000134135 0.000533722 -0.000349481 -0.000586943 3.2946e-06 0.000208004 -5.05383e-05 -0.000132036 -1.07372e-05 4.00381e-05 6.77381e-06 -9.45374e-06 0 0 
0 0 -7.82075e-06 3.5202e-06 3.03088e-05 -3.08158e-06 -0.000114009 -5.60448e-05 0.000200064 5.31205e-06 -0.000620685 -0.000318194 0.000664242 -2.90835e-05 -0.00176818 -0.00116433 0.00091344 0.000288018 -0.00257079 -0.00315116 -0.000637584 0.000857873 -0.00120349 -0.00406929 -0.00392707 -0.00123196 0.000375953 -0.00105368 -0.00370933 -0.00444766 -0.00237093 0.00042657 0.00134234 -7.88876e-05 -0.00192936 -0.00191572 0.000533888 0.00393343 0.00616654 0.00622792 0.00486147 0.00380176 0.00438194 0.00662003 0.00930528 0.0108902 0.0104642 0.00821371 0.00520758 0.00271259 0.00152595 0.00165118 0.00240254 0.00283766 0.0022329 0.000393804 -0.00231761 -0.00518912 -0.00746546 -0.00859421 -0.00835807 -0.00689317 -0.00461593 -0.00210754 4.68053e-05 0.00140349 0.00177863 0.00124891 9.72312e-05 -0.00129931 -0.00257931 -0.00347303 -0.00383913 -0.00365153 -0.00298322 -0.00196977 -0.000770927 0.00046062 0.00159298 0.00252727 0.00320735 0.00360898 0.00374364 0.0036387 0.00333652 0.00288652 0.0023374 0.00173345 0.00111091 0.000502664 -6.71691e-05 -0.000587007 -0.00104804 -0.00144521 -0.00178033 -0.00205448 -0.00226959 -0.00243179 -0.00254421 -0.00261138 -0.00263497 -0.00261168 -0.00254486 -0.0024327 -0.0022705 -0.00205506 -0.00178041 -0.00144493 -0.00104767 -0.000586611 -6.68344e-05 0.000503 0.00111125 0.00173365 0.00233716 0.00288637 0.00333682 0.00363882 0.00374334 0.00360997 0.00321175 0.00253506 0.00159603 0.000428298 -0.000909088 -0.00232773 -0.00368039 -0.00471333 -0.00506555 -0.00437426 -0.0025147 0.000146477 0.00270058 0.00406505 0.00362338 0.00164971 -0.000927991 -0.00328802 -0.00523517 -0.00697215 -0.00838877 -0.00883894 -0.00773759 -0.00526387 -0.00228014 0.000333656 0.00207407 0.0027288 0.00235925 0.00155469 0.00135134 0.00255527 0.00509347 0.00807072 0.0102787 0.0107278 0.00918156 0.00648724 0.00423301 0.00368173 0.00478249 0.00615408 0.00608565 0.00387327 0.000512489 -0.00191733 -0.00193688 -8.91142e-05 0.00135426 0.000469879 -0.00231496 -0.00440169 -0.00367209 -0.00100788 0.000403935 -0.00119093 -0.00386323 -0.00400765 -0.00117374 0.000869054 -0.000609413 -0.00309914 -0.00253154 0.000290787 0.000906324 -0.00115044 -0.00174862 -3.03824e-05 0.000652791 -0.000319 -0.000615148 4.66689e-06 0.000193521 -5.98306e-05 -0.000108273 4.37312e-06 1.71046e-05 6.40626e-06 0 0 
0 0 2.15555e-06 1.34905e-05 1.06442e-05 -8.53791e-05 -6.72626e-05 0.00016522 2.88317e-05 -0.000588724 -0.000318194 0.000704273 -0.000148537 -0.00203384 -0.00089589 0.00139085 -0.00039963 -0.00379387 -0.00284504 0.000680411 0.000580551 -0.00348047 -0.00574319 -0.00316227 0.000270022 -0.000369232 -0.00422561 -0.00648633 -0.00457645 -0.000807169 0.000641771 -0.0015421 -0.00465327 -0.00513039 -0.00205465 0.00225094 0.00461987 0.00390896 0.00175702 0.000943024 0.00307807 0.00744746 0.0117195 0.013703 0.0127627 0.0100272 0.00746873 0.00661428 0.00770634 0.00968959 0.0109637 0.0102706 0.00730088 0.00276659 -0.0020282 -0.00577401 -0.00765357 -0.00759822 -0.00619832 -0.00438754 -0.00303522 -0.00264219 -0.00321889 -0.00442714 -0.00575917 -0.00676458 -0.00712809 -0.00672623 -0.00557125 -0.00381164 -0.00168102 0.000518857 0.00249453 0.00400451 0.00489265 0.00510318 0.00468003 0.00374434 0.00244412 0.00094682 -0.000589584 -0.00203484 -0.00329326 -0.00430909 -0.00505007 -0.00552039 -0.0057402 -0.00574707 -0.00557908 -0.00527911 -0.00489172 -0.00445553 -0.00400196 -0.00355591 -0.00313582 -0.00276068 -0.00244763 -0.00219677 -0.00201507 -0.00190079 -0.0018648 -0.00190141 -0.00201611 -0.002198 -0.00244858 -0.00276102 -0.00313562 -0.00355538 -0.00400147 -0.00445514 -0.0048914 -0.00527859 -0.00557866 -0.00574724 -0.0057406 -0.0055201 -0.00504977 -0.00430973 -0.00329277 -0.00202965 -0.000578884 0.000955451 0.0024171 0.00359597 0.00425961 0.00423256 0.00349035 0.00227519 0.00105912 0.000289389 1.19125e-05 -0.000308441 -0.00145829 -0.00374888 -0.00643019 -0.00804905 -0.00759902 -0.00552819 -0.00341234 -0.00262873 -0.0033304 -0.0048005 -0.00634485 -0.00752992 -0.00769707 -0.00599042 -0.00219639 0.00271311 0.0071901 0.0100362 0.0107434 0.009542 0.00752434 0.00636448 0.00724796 0.00986422 0.012583 0.0134985 0.0115593 0.00734206 0.00296931 0.000826632 0.00168269 0.00388626 0.0046075 0.00222787 -0.00206582 -0.00509927 -0.00459096 -0.00148238 0.000684489 -0.000755213 -0.00449157 -0.00637589 -0.00414011 -0.000338362 0.000288674 -0.0031019 -0.00564639 -0.00340357 0.000610754 0.000699065 -0.00279835 -0.00374116 -0.000382999 0.00138548 -0.000884311 -0.00201582 -0.000150071 0.000696371 -0.000316159 -0.000588104 2.24545e-05 0.000165629 -5.95569e-05 -9.41609e-05 -1.56592e-05 1.7788e-05 0 0 
0 0 1.18187e-05 -6.84551e-06 -6.17436e-05 -6.37583e-05 0.000119728 5.62429e-05 -0.000505859 -0.000349386 0.000664242 -0.000148537 -0.00212507 -0.000701671 0.00166282 -0.00117163 -0.00465275 -0.00186399 0.00180013 -0.000909509 -0.00602422 -0.0058748 -0.00105644 0.000894045 -0.00327321 -0.00794462 -0.00715367 -0.00238139 0.000328445 -0.00217176 -0.00690117 -0.00843547 -0.00497474 0.000192418 0.00252056 0.000567758 -0.00290528 -0.00376048 -0.000197147 0.00600691 0.0111993 0.0127722 0.0109632 0.00829671 0.00760313 0.0100559 0.0145471 0.0185808 0.019825 0.0174191 0.0122615 0.00635943 0.00177348 -0.00035649 -0.000166698 0.00119912 0.00221546 0.00169551 -0.000793355 -0.00487336 -0.00956964 -0.0136495 -0.0160137 -0.0159941 -0.0135712 -0.00934577 -0.0043459 0.000347122 0.00386909 0.00576256 0.00598035 0.00479374 0.00265276 4.96519e-05 -0.00255601 -0.00479728 -0.0064276 -0.00733563 -0.00750065 -0.00699224 -0.00593924 -0.00449531 -0.00282354 -0.00107345 0.000637543 0.00221389 0.00359475 0.00475157 0.00567609 0.00637448 0.00686747 0.00718458 0.00736145 0.00743059 0.00742315 0.00736777 0.00728489 0.00719836 0.00712887 0.00708352 0.00707276 0.00708256 0.00712735 0.00719689 0.00728414 0.00736791 0.00742381 0.00743123 0.00736178 0.00718483 0.00686817 0.00637542 0.00567634 0.00475105 0.0035949 0.00221428 0.000636507 -0.00107391 -0.00281815 -0.00448155 -0.00592358 -0.00700845 -0.00764543 -0.00779566 -0.00744928 -0.00654674 -0.00486638 -0.00209761 0.00188103 0.00652984 0.0103822 0.0114607 0.00846514 0.00192667 -0.00580299 -0.0120189 -0.0154291 -0.0164507 -0.0159449 -0.0139592 -0.0101609 -0.00515286 -0.000698633 0.00170148 0.00194522 0.000944174 -0.00023775 -0.00046513 0.00148091 0.00605865 0.0120732 0.0171996 0.0194992 0.0182822 0.0143332 0.00982057 0.00732575 0.00808141 0.0108202 0.0126182 0.0110377 0.00591545 -0.000226968 -0.0037941 -0.00294583 0.000566791 0.00257463 0.000265887 -0.00492098 -0.00838614 -0.00681322 -0.00203653 0.000466294 -0.00227963 -0.00702734 -0.00782231 -0.00320386 0.000927469 -0.000989333 -0.00575255 -0.0059091 -0.000862632 0.0018085 -0.00181983 -0.00458086 -0.00114305 0.00165098 -0.000695443 -0.00210269 -0.0001454 0.00065321 -0.000354288 -0.000502139 6.20263e-05 0.00011318 -8.53282e-05 -5.59809e-05 -6.11247e-06 0 0 
0 0 2.48069e-07 -3.8169e-05 -7.35787e-05 6.86743e-05 8.42692e-05 -0.000381928 -0.000391377 0.000540865 -2.90835e-05 -0.00203384 -0.000701671 0.00174504 -0.00167798 -0.00508428 -0.000703151 0.00232934 -0.00324111 -0.00779549 -0.00410673 0.00107724 -0.000720781 -0.00752514 -0.00991055 -0.00484289 0.000130955 -0.00169616 -0.00793339 -0.0112764 -0.00797348 -0.00173832 0.00078049 -0.00251908 -0.00767028 -0.00899758 -0.00438936 0.00301868 0.00809345 0.00819999 0.00496079 0.00263915 0.00460731 0.010938 0.018639 0.0238406 0.0242799 0.0204631 0.0150124 0.0109702 0.0100347 0.0118837 0.0145956 0.0157697 0.0137786 0.00838826 0.000738564 -0.00719147 -0.0134371 -0.016719 -0.0168116 -0.0144077 -0.0107067 -0.0068707 -0.00381548 -0.00204111 -0.00170889 -0.00267468 -0.00454593 -0.00671583 -0.00856464 -0.00954164 -0.00934806 -0.00796189 -0.00559964 -0.00262143 0.000554653 0.00353262 0.00603312 0.00786598 0.00894218 0.00927831 0.00894171 0.00805042 0.00674261 0.00516019 0.00344668 0.00170053 1.16464e-05 -0.00156708 -0.00298053 -0.00421747 -0.00526635 -0.00614534 -0.00686134 -0.00742565 -0.00784988 -0.00816835 -0.00837933 -0.00851564 -0.00855579 -0.00851673 -0.00838112 -0.00816987 -0.00785041 -0.00742514 -0.00686051 -0.0061449 -0.00526631 -0.00421687 -0.00297903 -0.00156621 1.13196e-05 0.00170038 0.00344706 0.00515908 0.00674127 0.00805544 0.00895784 0.00930157 0.00894142 0.00774012 0.00556697 0.00240924 -0.00150269 -0.00553974 -0.00861487 -0.00957533 -0.00791473 -0.00442847 -0.0011184 1.71005e-05 -0.00146669 -0.00394761 -0.00528685 -0.00498379 -0.00479333 -0.00678214 -0.0109683 -0.0151919 -0.0173109 -0.0166303 -0.0133386 -0.00748919 0.000368313 0.00827815 0.0136933 0.0154316 0.0141932 0.0116367 0.00978261 0.0105595 0.0146114 0.0201823 0.0239842 0.0234758 0.0183514 0.0107516 0.00440375 0.00242859 0.00485167 0.00816477 0.00803668 0.00296844 -0.00436471 -0.00891823 -0.00759444 -0.00246508 0.000860435 -0.00159431 -0.00779324 -0.0111289 -0.00783896 -0.00162099 0.00016696 -0.00474912 -0.00974416 -0.0073656 -0.000630015 0.00113884 -0.00400517 -0.0076643 -0.00315923 0.00234895 -0.000662557 -0.00501168 -0.00164933 0.00173568 -0.00068902 -0.00201436 -3.60527e-05 0.000531518 -0.000383244 -0.000380558 6.4339e-05 6.5787e-05 -2.94652e-05 -4.22671e-05 0 0 