<?xml version="1.0"?>
<VTKFile type="ImageData" version="0.1" byte_order="LittleEndian">
<ImageData WholeExtent="0 199 0 199 0 0" Origin="0 0 0" Spacing="15 15 0">
<Piece Extent="0 199 0 199 0 0">
<PointData Scalars="Amplitude">
<DataArray type="Float32" Name="Amplitude" format="ascii">
0 0 0 0 0 0 0 0 0 0 0 0 0 0 0 0 0 0 0 0 0 0 0 0 0 0 0 0 0 0 0 0 0 0 0 0 0 0 0 0 0 0 0 0 0 0 0 0 0 0 0 0 0 0 0 0 0 0 0 0 0 0 0 0 0 0 0 0 0 0 0 0 0 0 0 0 0 0 0 0 0 0 0 0 0 0 0 0 0 0 0 0 0 0 0 0 0 0 0 0 0 0 0 0 0 0 0 0 0 0 0 0 0 0 0 0 0 0 0 0 0 0 0 0 0 0 0 0 0 0 0 0 0 0 0 0 0 0 0 0 0 0 0 0 0 0 0 0 0 0 0 0 0 0 0 0 0 0 0 0 0 0 0 0 0 0 0 0 0 0 0 0 0 0 0 0 0 0 0 0 0 0 0 0 0 0 0 0 0 0 0 0 0 0 0 0 0 0 0 0 
0 0 0 0 0 0 0 0 0 0 0 0 0 0 0 0 0 0 0 0 0 0 0 0 0 0 0 0 0 0 0 0 0 0 0 0 0 0 0 0 0 0 0 0 0 0 0 0 0 0 0 0 0 0 0 0 0 0 0 0 0 0 0 0 0 0 0 0 0 0 0 0 0 0 0 0 0 0 0 0 0 0 0 0 0 0 0 0 0 0 0 0 0 0 0 0 0 0 0 0 0 0 0 0 0 0 0 0 0 0 0 0 0 0 0 0 0 0 0 0 0 0 0 0 0 0 0 0 0 0 0 0 0 0 0 0 0 0 0 0 0 0 0 0 0 0 0 0 0 0 0 0 0 0 0 0 0 0 0 0 0 0 0 0 0 0 0 0 0 0 0 0 0 0 0 0 0 0 0 0 0 0 0 0 0 0 0 0 0 0 0 0 0 0 0 0 0 0 0 0 
0 0 4.26731e-29 3.97077e-28 1.53098e-27 -1.34868e-27 -6.78187e-26 -3.60748e-25 1.38457e-25 1.19612e-23 6.46712e-23 5.19898e-23 -1.26092e-21 -7.92417e-21 -1.60856e-20 6.55756e-20 6.0626e-19 1.91519e-18 1.43467e-19 -2.57773e-17 -1.19367e-16 -2.21882e-16 3.81443e-16 4.01338e-15 1.31494e-14 1.63469e-14 -5.37736e-14 -3.68333e-13 -1.05442e-12 -1.26989e-12 3.22229e-12 2.2754e-11 6.7862e-11 1.11038e-10 -1.63005e-11 -7.76367e-10 -2.91583e-09 -6.67634e-09 -9.16845e-09 8.67049e-10 4.924e-08 1.75656e-07 4.09106e-07 6.94832e-07 7.54947e-07 -9.93796e-08 -3.11129e-06 -9.98262e-06 -2.22603e-05 -3.99327e-05 -5.91353e-05 -6.92243e-05 -4.99635e-05 2.99892e-05 0.000211937 0.00054228 0.00106366 0.0018031 0.00275916 0.0038913 0.00511452 0.00630145 0.00729324 0.00791802 0.00801371 0.00745252 0.00616128 0.00413542 0.00144311 -0.00177998 -0.00534478 -0.00902907 -0.0126006 -0.0158396 -0.0185582 -0.0206147 -0.0219208 -0.0224428 -0.0221988 -0.0212496 -0.0196884 -0.01763 -0.0151985 -0.0125188 -0.00970786 -0.00686941 -0.00409068 -0.00144073 0.00102957 0.00328587 0.00530869 0.00709028 0.00863255 0.0099439 0.0110374 0.0119278 0.0126306 0.0131605 0.0135295 0.013747 0.0138188 0.013747 0.0135295 0.0131605 0.0126306 0.0119278 0.0110374 0.0099439 0.00863255 0.00709028 0.00530869 0.00328587 0.00102957 -0.00144073 -0.00409068 -0.00686941 -0.00970786 -0.0125188 -0.0151985 -0.01763 -0.0196884 -0.0212496 -0.0221988 -0.0224428 -0.0219208 -0.0206147 -0.0185582 -0.0158396 -0.0126006 -0.00902907 -0.00534478 -0.00177998 0.00144311 0.00413542 0.00616128 0.00745252 0.00801371 0.00791802 0.00729324 0.00630145 0.00511452 0.0038913 0.00275916 0.0018031 0.00106367 0.00054228 0.000211937 2.99892e-05 -4.99635e-05 -6.92244e-05 -5.91353e-05 -3.99327e-05 -2.22603e-05 -9.9826e-06 -3.11129e-06 -9.93801e-08 7.54946e-07 6.94832e-07 4.09105e-07 1.75656e-07 4.92401e-08 8.67098e-10 -9.16844e-09 -6.67634e-09 -2.91583e-09 -7.76366e-10 -1.62999e-11 1.11038e-10 6.78621e-11 2.2754e-11 3.22219e-12 -1.27003e-12 -1.05406e-12 -3.65522e-13 -5.33405e-14 1.6172e-14 1.30254e-14 3.97682e-15 3.77837e-16 -2.20067e-16 -1.18373e-16 -2.5559e-17 1.45337e-19 1.90052e-18 6.0148e-19 6.50244e-20 -1.59737e-20 -7.86496e-21 -1.25115e-21 5.17135e-23 6.42072e-23 1.18726e-23 1.36826e-25 -3.58225e-25 -6.72849e-26 -1.27188e-27 6.90424e-28 2.93217e-28 0 0 
0 0 3.97077e-28 1.72704e-27 2.63705e-27 -7.34597e-26 -5.46447e-25 -6.48547e-25 1.4235e-23 1.02721e-22 1.90518e-22 -1.56458e-21 -1.30663e-20 -3.61102e-20 7.19622e-20 1.03323e-18 3.92639e-18 2.81033e-18 -4.41037e-17 -2.42779e-16 -5.40807e-16 4.83475e-16 8.13612e-15 2.97131e-14 4.41461e-14 -9.81142e-14 -8.06834e-13 -2.45872e-12 -3.25959e-12 6.66337e-12 5.23162e-11 1.60421e-10 2.65624e-10 -4.68311e-11 -1.92142e-09 -7.17801e-09 -1.61898e-08 -2.09478e-08 8.47289e-09 1.38746e-07 4.66969e-07 1.04548e-06 1.67312e-06 1.51495e-06 -1.37384e-06 -1.03211e-05 -2.95271e-05 -6.1991e-05 -0.000105208 -0.00014459 -0.000145694 -4.77571e-05 0.000237899 0.000820972 0.00181453 0.00330724 0.00532971 0.00782248 0.0106145 0.0134206 0.0158624 0.0175119 0.0179518 0.0168417 0.0139782 0.00933641 0.00308639 -0.00441936 -0.0126845 -0.0211255 -0.0291378 -0.0361593 -0.0417257 -0.045507 -0.047327 -0.0471626 -0.0451279 -0.0414465 -0.0364187 -0.030387 -0.0237027 -0.0167005 -0.00967807 -0.00288261 0.00349435 0.00931789 0.0145054 0.0190202 0.0228637 0.026066 0.0286777 0.0307624 0.0323901 0.0336321 0.0345569 0.0352272 0.0356983 0.036016 0.0362167 0.0363268 0.0363617 0.0363268 0.0362167 0.036016 0.0356983 0.0352272 0.0345569 0.0336321 0.0323901 0.0307624 0.0286777 0.026066 0.0228637 0.0190202 0.0145054 0.00931789 0.00349435 -0.00288261 -0.00967807 -0.0167005 -0.0237027 -0.030387 -0.0364187 -0.0414465 -0.0451279 -0.0471626 -0.047327 -0.045507 -0.0417257 -0.0361593 -0.0291378 -0.0211255 -0.0126845 -0.00441936 0.00308639 0.00933641 0.0139782 0.0168417 0.0179518 0.0175119 0.0158624 0.0134206 0.0106145 0.00782249 0.00532972 0.00330724 0.00181453 0.000820973 0.000237899 -4.77572e-05 -0.000145694 -0.00014459 -0.000105208 -6.19908e-05 -2.9527e-05 -1.03211e-05 -1.37384e-06 1.51494e-06 1.67312e-06 1.04548e-06 4.66969e-07 1.38746e-07 8.47291e-09 -2.09478e-08 -1.61899e-08 -7.17802e-09 -1.92142e-09 -4.68303e-11 2.65625e-10 1.6042e-10 5.23159e-11 6.66405e-12 -3.25337e-12 -2.43513e-12 -7.99026e-13 -9.72108e-14 4.37418e-14 2.94475e-14 8.06389e-15 4.78589e-16 -5.36496e-16 -2.40797e-16 -4.3733e-17 2.79407e-18 3.89657e-18 1.02514e-18 7.13296e-20 -3.58546e-20 -1.2969e-20 -1.55235e-21 1.89278e-22 1.01983e-22 1.4129e-23 -6.44677e-25 -5.42439e-25 -7.43381e-26 -1.06529e-26 7.32551e-28 0 0 
0 0 1.53098e-27 2.63705e-27 -1.28964e-26 -3.94561e-25 -1.87844e-24 2.69593e-24 7.63997e-23 3.59601e-22 -5.10981e-23 -9.29085e-21 -4.91589e-20 -6.32341e-20 6.34886e-19 4.35285e-18 1.08726e-17 -1.50163e-17 -2.26912e-16 -8.41934e-16 -9.51768e-16 5.64815e-15 3.48419e-14 8.94655e-14 3.25062e-14 -7.02573e-13 -3.17965e-12 -6.94002e-12 -1.82707e-12 4.79934e-11 2.06871e-10 4.73281e-10 4.20545e-10 -1.52976e-09 -8.6617e-09 -2.40566e-08 -4.13258e-08 -2.2457e-08 1.34377e-07 6.0726e-07 1.56518e-06 2.85847e-06 3.37132e-06 8.91355e-08 -1.26727e-05 -4.28551e-05 -9.7521e-05 -0.000175469 -0.000255063 -0.000278928 -0.000140113 0.000323121 0.00131599 0.00305398 0.00570802 0.00933628 0.0138182 0.0188101 0.0237403 0.0278552 0.0303131 0.030314 0.0272399 0.0207777 0.011 -0.0016133 -0.0162174 -0.0317002 -0.0468173 -0.06034 -0.0711936 -0.0785653 -0.0819706 -0.0812729 -0.0766646 -0.0686085 -0.0577657 -0.0449089 -0.0308445 -0.0163418 -0.00208111 0.0113808 0.0236267 0.0343814 0.0435004 0.0509519 0.0567938 0.0611522 0.0641969 0.066124 0.0671376 0.0674382 0.0672141 0.0666357 0.0658512 0.0649872 0.0641469 0.0634121 0.0628442 0.0624873 0.0623655 0.0624873 0.0628442 0.0634121 0.0641469 0.0649872 0.0658512 0.0666357 0.0672141 0.0674382 0.0671376 0.066124 0.0641969 0.0611522 0.0567938 0.0509519 0.0435004 0.0343814 0.0236267 0.0113808 -0.00208111 -0.0163418 -0.0308445 -0.0449089 -0.0577657 -0.0686085 -0.0766646 -0.0812729 -0.0819706 -0.0785653 -0.0711936 -0.06034 -0.0468173 -0.0317002 -0.0162174 -0.0016133 0.011 0.0207777 0.0272399 0.030314 0.0303131 0.0278552 0.0237403 0.0188101 0.0138182 0.00933629 0.00570802 0.00305398 0.00131599 0.000323121 -0.000140113 -0.000278928 -0.000255063 -0.000175469 -9.75208e-05 -4.28551e-05 -1.26727e-05 8.91265e-08 3.37131e-06 2.85846e-06 1.56517e-06 6.07261e-07 1.34377e-07 -2.24571e-08 -4.1326e-08 -2.40566e-08 -8.6617e-09 -1.52976e-09 4.20546e-10 4.73281e-10 2.06871e-10 4.79986e-11 -1.80155e-12 -6.87616e-12 -3.1484e-12 -6.95892e-13 3.22244e-14 8.86703e-14 3.45356e-14 5.59755e-15 -9.44704e-16 -8.35156e-16 -2.2505e-16 -1.48754e-17 1.07924e-17 4.31934e-18 6.29779e-19 -6.28335e-20 -4.87986e-20 -9.22035e-21 -5.00544e-23 3.57061e-22 7.58411e-23 2.67335e-24 -1.86535e-24 -4.01126e-25 -7.43724e-26 -1.2807e-27 0 0 
0 0 -1.34868e-27 -7.34597e-26 -3.94561e-25 -1.86122e-24 3.37549e-24 8.48952e-23 3.8923e-22 -2.5604e-22 -1.19631e-20 -5.98088e-20 -5.0222e-20 9.93475e-19 6.109e-18 1.30222e-17 -3.70374e-17 -3.77528e-16 -1.24349e-15 -7.02544e-16 1.21906e-14 6.15875e-14 1.33026e-13 -6.6075e-14 -1.56351e-12 -5.84794e-12 -1.01712e-11 8.14684e-12 1.16009e-10 4.03791e-10 7.45415e-10 5.76712e-11 -4.90783e-09 -1.95991e-08 -4.52376e-08 -5.65433e-08 4.26763e-08 4.6629e-07 1.50981e-06 3.24975e-06 4.73891e-06 2.596e-06 -1.05885e-05 -4.66209e-05 -0.000118259 -0.000228753 -0.000352182 -0.000405931 -0.000222355 0.000467097 0.00201883 0.00482138 0.00919406 0.0152536 0.0227799 0.0311229 0.0391912 0.0455489 0.0486163 0.046947 0.0395224 0.0259972 0.00684289 -0.0166501 -0.0425133 -0.0683583 -0.0916995 -0.110283 -0.122367 -0.126906 -0.123627 -0.113001 -0.0961118 -0.074477 -0.0498436 -0.0239858 0.00146363 0.0251336 0.0459891 0.0633545 0.0768976 0.0865866 0.0926278 0.0954005 0.0953906 0.093133 0.0891653 0.0839949 0.0780745 0.0717902 0.0654593 0.0593292 0.0535865 0.0483659 0.043757 0.039817 0.0365771 0.0340537 0.0322519 0.031172 0.0308128 0.031172 0.0322519 0.0340537 0.0365771 0.039817 0.043757 0.0483659 0.0535865 0.0593292 0.0654593 0.0717902 0.0780745 0.0839949 0.0891653 0.093133 0.0953906 0.0954005 0.0926278 0.0865866 0.0768976 0.0633545 0.0459891 0.0251336 0.00146363 -0.0239858 -0.0498436 -0.074477 -0.0961118 -0.113001 -0.123627 -0.126906 -0.122367 -0.110283 -0.0916995 -0.0683583 -0.0425133 -0.0166501 0.00684289 0.0259972 0.0395224 0.046947 0.0486163 0.0455489 0.0391912 0.0311229 0.02278 0.0152536 0.00919407 0.00482139 0.00201883 0.000467098 -0.000222355 -0.000405929 -0.000352182 -0.000228753 -0.000118259 -4.66209e-05 -1.05885e-05 2.596e-06 4.73891e-06 3.24975e-06 1.50982e-06 4.6629e-07 4.2676e-08 -5.65435e-08 -4.52378e-08 -1.95991e-08 -4.90783e-09 5.76733e-11 7.45428e-10 4.03836e-10 1.16101e-10 8.18649e-12 -1.00589e-11 -5.79155e-12 -1.54898e-12 -6.53845e-14 1.31901e-13 6.1065e-14 1.20854e-14 -6.9843e-16 -1.23379e-15 -3.74513e-16 -3.67176e-17 1.29297e-17 6.0629e-18 9.85685e-19 -4.99479e-20 -5.93775e-20 -1.18737e-20 -2.53424e-22 3.86514e-22 8.42813e-23 3.33854e-24 -1.9154e-24 -5.61681e-25 -7.34013e-26 0 0 
0 0 -6.78187e-26 -5.46447e-25 -1.87844e-24 3.37549e-24 8.86252e-23 4.11472e-22 -4.00361e-22 -1.43096e-20 -7.00774e-20 -3.47381e-20 1.40171e-18 8.13422e-18 1.50007e-17 -6.88652e-17 -5.84198e-16 -1.75412e-15 1.63818e-17 2.30109e-14 1.02579e-13 1.86559e-13 -2.96001e-13 -3.12985e-12 -1.02099e-11 -1.36414e-11 3.29263e-11 2.47723e-10 7.37799e-10 1.05979e-09 -1.20899e-09 -1.22799e-08 -4.01818e-08 -7.77317e-08 -5.38543e-08 2.48142e-07 1.23797e-06 3.31795e-06 6.04457e-06 6.25302e-06 -4.731e-06 -4.32467e-05 -0.000131013 -0.000282445 -0.000475603 -0.000605264 -0.00042666 0.0004881 0.00274785 0.007061 0.0140581 0.024035 0.0366728 0.0508242 0.0644619 0.0748548 0.0789814 0.0741164 0.0584622 0.031675 -0.00485691 -0.0480647 -0.0935818 -0.136383 -0.171547 -0.194993 -0.204047 -0.197756 -0.176908 -0.143808 -0.101848 -0.054993 -0.00726243 0.0377163 0.0770305 0.108661 0.131527 0.145409 0.150808 0.148751 0.140588 0.127815 0.111913 0.0942389 0.0759572 0.0579946 0.0410397 0.025558 0.0118199 -6.85977e-05 -0.0101215 -0.0184405 -0.025184 -0.030539 -0.0347038 -0.0378686 -0.0402055 -0.0418634 -0.0429608 -0.0435837 -0.0437852 -0.0435837 -0.0429608 -0.0418634 -0.0402055 -0.0378686 -0.0347038 -0.030539 -0.025184 -0.0184405 -0.0101215 -6.85977e-05 0.0118199 0.025558 0.0410397 0.0579946 0.0759572 0.0942389 0.111913 0.127815 0.140588 0.148751 0.150808 0.145409 0.131527 0.108661 0.0770305 0.0377163 -0.00726243 -0.054993 -0.101848 -0.143808 -0.176908 -0.197756 -0.204047 -0.194993 -0.171547 -0.136383 -0.0935818 -0.0480647 -0.00485691 0.031675 0.0584623 0.0741165 0.0789816 0.074855 0.0644621 0.0508242 0.0366729 0.0240351 0.0140582 0.007061 0.00274785 0.0004881 -0.00042666 -0.000605265 -0.000475603 -0.000282445 -0.000131013 -4.32466e-05 -4.731e-06 6.25302e-06 6.04458e-06 3.31795e-06 1.23797e-06 2.48142e-07 -5.38542e-08 -7.77318e-08 -4.01818e-08 -1.22799e-08 -1.20892e-09 1.05991e-09 7.37603e-10 2.46175e-10 3.26872e-11 -1.35076e-11 -1.01167e-11 -3.10184e-12 -2.93217e-13 1.85059e-13 1.01737e-13 2.28185e-14 1.35996e-17 -1.74082e-15 -5.79634e-16 -6.82945e-17 1.48979e-17 8.07391e-18 1.39093e-18 -3.46058e-20 -6.95784e-20 -1.42039e-20 -3.96662e-22 4.08617e-22 8.79273e-23 3.29109e-24 -6.04608e-25 -3.98092e-25 0 0 
0 0 -3.60748e-25 -6.48547e-25 2.69593e-24 8.48952e-23 4.11472e-22 -4.54515e-22 -1.56278e-20 -7.68833e-20 -1.83717e-20 1.77909e-18 1.00274e-17 1.60892e-17 -1.0832e-16 -8.2691e-16 -2.29273e-15 1.45504e-15 3.86635e-14 1.57269e-13 2.35242e-13 -7.41738e-13 -5.65554e-12 -1.64519e-11 -1.51985e-11 8.45752e-11 4.74911e-10 1.23299e-09 1.23449e-09 -4.3604e-09 -2.63004e-08 -7.38796e-08 -1.16244e-07 1.29937e-08 7.4675e-07 2.77113e-06 6.39461e-06 9.55623e-06 3.96684e-06 -2.9608e-05 -0.000122554 -0.000307147 -0.00058078 -0.000836757 -0.000766484 0.000237821 0.0031236 0.00909156 0.019329 0.0345643 0.0545277 0.0774844 0.10004 0.11739 0.124065 0.115067 0.0871471 0.0398905 -0.0237196 -0.0974394 -0.172627 -0.239648 -0.289513 -0.315382 -0.313658 -0.284426 -0.231253 -0.16043 -0.0798701 0.00212075 0.077951 0.141579 0.189008 0.218411 0.229955 0.225413 0.207663 0.180175 0.146535 0.110085 0.0736712 0.0395061 0.00913387 -0.0165335 -0.0371195 -0.0526832 -0.0635917 -0.0704117 -0.0738139 -0.074502 -0.0731547 -0.0703898 -0.0667472 -0.0626812 -0.0585621 -0.054677 -0.0512461 -0.0484316 -0.0463473 -0.0450687 -0.0446381 -0.0450687 -0.0463473 -0.0484316 -0.0512461 -0.054677 -0.0585621 -0.0626812 -0.0667472 -0.0703898 -0.0731547 -0.074502 -0.0738139 -0.0704117 -0.0635917 -0.0526832 -0.0371195 -0.0165335 0.00913387 0.0395061 0.0736712 0.110085 0.146535 0.180175 0.207663 0.225413 0.229955 0.218411 0.189008 0.141579 0.077951 0.00212075 -0.0798701 -0.16043 -0.231253 -0.284426 -0.313658 -0.315382 -0.289513 -0.239648 -0.172627 -0.0974393 -0.0237197 0.0398904 0.0871472 0.115067 0.124065 0.11739 0.10004 0.0774845 0.0545278 0.0345643 0.019329 0.00909154 0.0031236 0.00023782 -0.000766484 -0.000836757 -0.00058078 -0.000307147 -0.000122554 -2.9608e-05 3.96685e-06 9.55625e-06 6.39461e-06 2.77114e-06 7.46753e-07 1.29939e-08 -1.16244e-07 -7.38796e-08 -2.63004e-08 -4.36101e-09 1.23088e-09 1.22306e-09 4.70503e-10 8.3796e-11 -1.50661e-11 -1.63088e-11 -5.60665e-12 -7.3509e-13 2.3345e-13 1.56013e-13 3.83487e-14 1.43966e-15 -2.27579e-15 -8.20574e-16 -1.07447e-16 1.59833e-17 9.95413e-18 1.76561e-18 -1.8377e-20 -7.63416e-20 -1.55137e-20 -4.50523e-22 4.08606e-22 8.63419e-23 1.64386e-23 2.62116e-25 0 0 
0 0 1.38457e-25 1.4235e-23 7.63997e-23 3.8923e-22 -4.00361e-22 -1.56278e-20 -7.92643e-20 -7.8565e-21 2.04773e-18 1.14988e-17 1.63848e-17 -1.49525e-16 -1.07752e-15 -2.79731e-15 3.62768e-15 5.87568e-14 2.23258e-13 2.64553e-13 -1.47431e-12 -9.34287e-12 -2.45706e-11 -1.18569e-11 1.78042e-10 8.34159e-10 1.89986e-09 9.72205e-10 -1.07627e-08 -5.02411e-08 -1.23392e-07 -1.46745e-07 2.22182e-07 1.76247e-06 5.46169e-06 1.09368e-05 1.22462e-05 -9.1943e-06 -9.11539e-05 -0.000286035 -0.000626445 -0.00103949 -0.0012011 -0.00035669 0.00281399 0.0101642 0.0237533 0.0451687 0.0745854 0.109825 0.145799 0.174715 0.187243 0.174536 0.130644 0.0546672 -0.0480487 -0.166132 -0.283875 -0.384059 -0.451217 -0.474578 -0.449998 -0.380515 -0.275522 -0.14882 -0.0161063 0.107587 0.209984 0.282914 0.322811 0.330423 0.309964 0.267938 0.211908 0.149404 0.0870675 0.0301405 -0.0177742 -0.0546841 -0.0800041 -0.0942576 -0.0987388 -0.0951855 -0.0855112 -0.0715827 -0.0550859 -0.0374426 -0.0197711 -0.0028967 0.0126287 0.0264769 0.0384999 0.0486797 0.0570889 0.063853 0.0691192 0.0730327 0.0757269 0.0773007 0.0778177 0.0773007 0.0757269 0.0730327 0.0691192 0.063853 0.0570889 0.0486797 0.0384999 0.0264769 0.0126287 -0.0028967 -0.0197711 -0.0374426 -0.0550859 -0.0715827 -0.0855112 -0.0951855 -0.0987388 -0.0942576 -0.0800041 -0.0546841 -0.0177742 0.0301405 0.0870675 0.149404 0.211908 0.267938 0.309964 0.330423 0.322811 0.282914 0.209984 0.107587 -0.0161063 -0.14882 -0.275522 -0.380515 -0.449998 -0.474578 -0.451217 -0.384058 -0.283876 -0.166132 -0.0480487 0.0546672 0.130644 0.174537 0.187244 0.174715 0.145799 0.109825 0.0745856 0.0451687 0.0237532 0.0101642 0.00281399 -0.000356688 -0.0012011 -0.00103949 -0.000626444 -0.000286035 -9.11538e-05 -9.19423e-06 1.22463e-05 1.09368e-05 5.4617e-06 1.76248e-06 2.22183e-07 -1.46746e-07 -1.23394e-07 -5.02473e-08 -1.07781e-08 9.53651e-10 1.88087e-09 8.26403e-10 1.76419e-10 -1.17699e-11 -2.43653e-11 -9.2645e-12 -1.46157e-12 2.62663e-13 2.2152e-13 5.82888e-14 3.59424e-15 -2.77711e-15 -1.0694e-15 -1.48344e-16 1.6281e-17 1.14158e-17 2.03241e-18 -7.94645e-21 -7.8711e-20 -1.55147e-20 -3.94925e-22 4.00811e-22 1.17646e-22 1.48671e-23 0 0 
0 0 1.19612e-23 1.02721e-22 3.59601e-22 -2.5604e-22 -1.43096e-20 -7.68833e-20 -7.8565e-21 2.14519e-18 1.23037e-17 1.6273e-17 -1.84136e-16 -1.29798e-15 -3.2119e-15 6.2765e-15 8.14736e-14 2.94885e-13 2.62209e-13 -2.51941e-12 -1.42146e-11 -3.41396e-11 -9.57345e-15 3.28274e-10 1.35677e-09 2.71471e-09 -1.61929e-10 -2.20902e-08 -8.74281e-08 -1.88659e-07 -1.41894e-07 6.88781e-07 3.57699e-06 9.68097e-06 1.66303e-05 1.05816e-05 -4.54106e-05 -0.000217755 -0.000580798 -0.00113186 -0.00160979 -0.00122018 0.0016526 0.0095689 0.0257553 0.0532341 0.093372 0.144177 0.19898 0.246251 0.271103 0.258501 0.197523 0.0854484 -0.0696962 -0.249179 -0.426479 -0.572487 -0.661627 -0.677327 -0.615442 -0.484867 -0.305342 -0.103219 0.09371 0.261042 0.381383 0.446157 0.455618 0.417349 0.343854 0.249863 0.149853 0.056155 -0.0221833 -0.079792 -0.11477 -0.128088 -0.122743 -0.10292 -0.0732073 -0.0380243 -0.00119363 0.0342689 0.0662193 0.0933491 0.115058 0.131314 0.142485 0.149207 0.15225 0.152428 0.150529 0.14728 0.14331 0.139149 0.135214 0.131836 0.129259 0.127647 0.1271 0.127647 0.129259 0.131836 0.135214 0.139149 0.14331 0.14728 0.150529 0.152428 0.15225 0.149207 0.142485 0.131314 0.115058 0.0933491 0.0662193 0.0342689 -0.00119363 -0.0380243 -0.0732073 -0.10292 -0.122743 -0.128088 -0.11477 -0.079792 -0.0221833 0.056155 0.149853 0.249863 0.343854 0.417349 0.455618 0.446157 0.381383 0.261042 0.09371 -0.103219 -0.305342 -0.484867 -0.615442 -0.677327 -0.661628 -0.572487 -0.42648 -0.249179 -0.0696958 0.085449 0.197524 0.258502 0.271104 0.246252 0.198981 0.144177 0.0933718 0.053234 0.0257553 0.00956891 0.0016526 -0.00122018 -0.00160979 -0.00113186 -0.000580797 -0.000217755 -4.54105e-05 1.05817e-05 1.66303e-05 9.68098e-06 3.57699e-06 6.88777e-07 -1.41906e-07 -1.8868e-07 -8.74334e-08 -2.19754e-08 -1.68424e-10 2.68953e-09 1.34469e-09 3.25374e-10 -4.18154e-14 -3.38645e-11 -1.40986e-11 -2.49826e-12 2.60496e-13 2.92639e-13 8.08367e-14 6.22187e-15 -3.18921e-15 -1.28834e-15 -1.82706e-16 1.61732e-17 1.22159e-17 2.1293e-18 -7.94268e-21 -7.63485e-20 -1.41947e-20 -2.31454e-22 1.91489e-22 7.89992e-23 0 0 
0 0 6.46712e-23 1.90518e-22 -5.10981e-23 -1.19631e-20 -7.00774e-20 -1.83717e-20 2.04773e-18 1.23037e-17 1.61755e-17 -2.03977e-16 -1.44965e-15 -3.50002e-15 8.88247e-15 1.03669e-13 3.64018e-13 2.25104e-13 -3.82202e-12 -2.00218e-11 -4.43274e-11 2.33627e-11 5.44774e-10 2.05491e-09 3.60762e-09 -2.6944e-09 -4.0072e-08 -1.40493e-07 -2.65464e-07 -6.05273e-08 1.55616e-06 6.48533e-06 1.56324e-05 2.23066e-05 -1.53419e-06 -0.000122269 -0.000444906 -0.00105278 -0.00182544 -0.0020922 -0.000163606 0.00706419 0.0240764 0.055873 0.106058 0.174132 0.252863 0.327007 0.374648 0.371618 0.298364 0.147254 -0.0721302 -0.332021 -0.590741 -0.801424 -0.922867 -0.929375 -0.816851 -0.603537 -0.325446 -0.0280946 0.243218 0.45199 0.576282 0.610661 0.564662 0.458664 0.31857 0.170498 0.0366202 -0.0674583 -0.133585 -0.16057 -0.152718 -0.117887 -0.0655547 -0.00517827 0.0550194 0.108733 0.15181 0.182155 0.199404 0.204491 0.199187 0.185697 0.166331 0.143272 0.118413 0.0932963 0.0690914 0.0466195 0.026405 0.00872843 -0.00630584 -0.0187235 -0.0286186 -0.0361224 -0.041373 -0.0444789 -0.0455059 -0.0444789 -0.041373 -0.0361224 -0.0286186 -0.0187235 -0.00630584 0.00872843 0.026405 0.0466195 0.0690914 0.0932963 0.118413 0.143272 0.166331 0.185697 0.199187 0.204491 0.199404 0.182155 0.15181 0.108733 0.0550194 -0.00517827 -0.0655547 -0.117887 -0.152718 -0.16057 -0.133585 -0.0674583 0.0366202 0.170498 0.31857 0.458664 0.564662 0.610661 0.576282 0.45199 0.243218 -0.0280946 -0.325446 -0.603537 -0.816852 -0.929375 -0.922868 -0.801425 -0.59074 -0.33202 -0.0721294 0.147256 0.298367 0.371622 0.37465 0.327008 0.252863 0.174132 0.106058 0.0558731 0.0240764 0.00706419 -0.000163606 -0.0020922 -0.00182544 -0.00105278 -0.000444907 -0.000122269 -1.53421e-06 2.23066e-05 1.56324e-05 6.4853e-06 1.55613e-06 -6.05122e-08 -2.65181e-07 -1.39512e-07 -3.97244e-08 -2.67044e-09 3.57646e-09 2.03731e-09 5.40102e-10 2.31163e-11 -4.39818e-11 -1.98622e-11 -3.7907e-12 2.23844e-13 3.61299e-13 1.02872e-13 8.80772e-15 -3.47573e-15 -1.43901e-15 -2.02414e-16 1.60778e-17 1.22166e-17 2.03269e-18 -1.83572e-20 -6.95761e-20 -1.21451e-20 -2.16091e-21 3.52225e-23 0 0 
0 0 5.19898e-23 -1.56458e-21 -9.29085e-21 -5.98088e-20 -3.47381e-20 1.77909e-18 1.14988e-17 1.6273e-17 -2.03977e-16 -1.50375e-15 -3.64587e-15 1.08055e-14 1.215e-13 4.21672e-13 1.6372e-13 -5.22964e-12 -2.62122e-11 -5.40796e-11 5.90027e-11 8.2513e-10 2.90948e-09 4.46384e-09 -7.13134e-09 -6.61081e-08 -2.10586e-07 -3.45122e-07 1.47582e-07 2.97242e-06 1.07251e-05 2.31999e-05 2.57436e-05 -3.26678e-05 -0.00026112 -0.000808703 -0.00172848 -0.00262722 -0.00206073 0.00319041 0.0185568 0.0511858 0.107915 0.191614 0.296739 0.405955 0.49011 0.513164 0.44198 0.258407 -0.0304734 -0.388374 -0.75464 -1.05748 -1.23193 -1.23703 -1.06681 -0.75192 -0.351504 0.0615302 0.417591 0.664917 0.77828 0.760498 0.637597 0.44982 0.241396 0.0515275 -0.0917529 -0.174168 -0.194656 -0.162538 -0.0935004 -0.00552942 0.0844731 0.163013 0.221126 0.254508 0.262922 0.249134 0.217806 0.174415 0.124387 0.0725209 0.0226484 -0.022519 -0.0613136 -0.0929747 -0.117471 -0.135298 -0.147277 -0.154399 -0.157714 -0.158231 -0.156883 -0.154464 -0.15163 -0.148904 -0.146685 -0.145249 -0.144753 -0.145249 -0.146685 -0.148904 -0.15163 -0.154464 -0.156883 -0.158231 -0.157714 -0.154399 -0.147277 -0.135298 -0.117471 -0.0929747 -0.0613136 -0.022519 0.0226484 0.0725209 0.124387 0.174415 0.217806 0.249134 0.262922 0.254508 0.221126 0.163013 0.0844731 -0.00552942 -0.0935004 -0.162538 -0.194656 -0.174168 -0.0917529 0.0515275 0.241396 0.44982 0.637597 0.760498 0.77828 0.664917 0.417591 0.0615302 -0.351504 -0.75192 -1.06681 -1.23703 -1.23193 -1.05748 -0.754638 -0.38837 -0.0304692 0.258414 0.441983 0.513167 0.490111 0.405955 0.296739 0.191614 0.107915 0.0511859 0.0185567 0.00319041 -0.00206073 -0.00262722 -0.00172848 -0.000808704 -0.00026112 -3.26678e-05 2.57436e-05 2.31999e-05 1.07251e-05 2.9729e-06 1.49169e-07 -3.42049e-07 -2.08647e-07 -6.55115e-08 -7.06496e-09 4.42731e-09 2.88533e-09 8.18233e-10 5.84474e-11 -5.36704e-11 -2.60075e-11 -5.18761e-12 1.63078e-13 4.18573e-13 1.20579e-13 1.07165e-14 -3.6209e-15 -1.49283e-15 -2.02429e-16 1.61743e-17 1.14179e-17 1.76613e-18 -3.48077e-20 -6.14809e-20 -1.69889e-20 -1.84301e-21 0 0 
0 0 -1.26092e-21 -1.30663e-20 -4.91589e-20 -5.0222e-20 1.40171e-18 1.00274e-17 1.63848e-17 -1.84136e-16 -1.44965e-15 -3.64587e-15 1.15152e-14 1.31461e-13 4.5988e-13 1.00304e-13 -6.51105e-12 -3.19942e-11 -6.24026e-11 1.03914e-10 1.15e-09 3.86388e-09 5.15717e-09 -1.3749e-08 -1.00674e-07 -2.96804e-07 -4.15883e-07 5.31097e-07 5.05471e-06 1.63986e-05 3.18587e-05 2.37938e-05 -9.27456e-05 -0.000483142 -0.00133563 -0.00259379 -0.00334068 -0.000825143 0.0105531 0.0395359 0.0965259 0.189559 0.31806 0.466382 0.600587 0.671981 0.628876 0.43445 0.0847848 -0.380467 -0.880847 -1.31251 -1.57577 -1.60372 -1.38234 -0.955096 -0.410848 0.140402 0.595842 0.883705 0.976373 0.890581 0.676916 0.402874 0.135143 -0.0744401 -0.196565 -0.225686 -0.175752 -0.0730216 0.0519178 0.170929 0.262889 0.315737 0.326335 0.298742 0.241832 0.16673 0.0846172 0.00515912 -0.0643574 -0.119331 -0.157697 -0.179456 -0.186129 -0.180172 -0.164484 -0.141989 -0.115362 -0.0869032 -0.0584067 -0.0312251 -0.00627797 0.0158651 0.0349191 0.0507888 0.0635221 0.073221 0.0800347 0.0840772 0.0854138 0.0840772 0.0800347 0.073221 0.0635221 0.0507888 0.0349191 0.0158651 -0.00627797 -0.0312251 -0.0584067 -0.0869032 -0.115362 -0.141989 -0.164484 -0.180172 -0.186129 -0.179456 -0.157697 -0.119331 -0.0643574 0.00515912 0.0846172 0.16673 0.241832 0.298742 0.326335 0.315737 0.262889 0.170929 0.0519178 -0.0730216 -0.175752 -0.225686 -0.196565 -0.0744401 0.135143 0.402874 0.676916 0.890581 0.976373 0.883705 0.595842 0.140401 -0.410849 -0.955096 -1.38234 -1.60371 -1.57577 -1.31251 -0.880841 -0.380464 0.0847862 0.434451 0.628877 0.671981 0.600586 0.466381 0.31806 0.189559 0.096526 0.0395359 0.0105531 -0.000825127 -0.00334068 -0.0025938 -0.00133564 -0.000483143 -9.27455e-05 2.3794e-05 3.18595e-05 1.64007e-05 5.05813e-06 5.30872e-07 -4.1173e-07 -2.9415e-07 -9.97913e-08 -1.3625e-08 5.11696e-09 3.83266e-09 1.1406e-09 1.02985e-10 -6.19426e-11 -3.17484e-11 -6.45956e-12 1.00253e-13 4.56548e-13 1.30477e-13 1.14217e-14 -3.6211e-15 -1.43921e-15 -1.82749e-16 1.62836e-17 9.95715e-18 1.38996e-18 -5.52139e-20 -4.26371e-20 -1.09768e-20 0 0 
0 0 -7.92417e-21 -3.61102e-20 -6.32341e-20 9.93475e-19 8.13422e-18 1.60892e-17 -1.49525e-16 -1.29798e-15 -3.50002e-15 1.08055e-14 1.31461e-13 4.73249e-13 6.01978e-14 -7.41317e-12 -3.64928e-11 -6.86045e-11 1.51038e-10 1.48245e-09 4.82749e-09 5.59681e-09 -2.23526e-08 -1.42585e-07 -3.95376e-07 -4.65781e-07 1.1225e-06 7.85003e-06 2.34159e-05 4.0714e-05 1.29476e-05 -0.000190908 -0.000803734 -0.0020315 -0.00357872 -0.00364587 0.00252786 0.0239463 0.0736581 0.165504 0.307013 0.489743 0.681063 0.823101 0.843478 0.677919 0.298374 -0.264573 -0.916752 -1.51866 -1.92348 -2.02216 -1.77901 -1.24466 -0.541329 0.173444 0.751728 1.09342 1.16676 1.00705 0.69739 0.339786 0.0267543 -0.179122 -0.253781 -0.208908 -0.0811658 0.0819069 0.235027 0.344511 0.392709 0.377806 0.31047 0.20881 0.0933029 -0.0173551 -0.108858 -0.172549 -0.205289 -0.208484 -0.186743 -0.146436 -0.0944155 -0.0370964 0.020134 0.0732808 0.119675 0.157927 0.187666 0.209269 0.223639 0.231923 0.23542 0.235411 0.233079 0.229443 0.225346 0.22148 0.218375 0.216378 0.215695 0.216378 0.218375 0.22148 0.225346 0.229443 0.233079 0.235411 0.23542 0.231923 0.223639 0.209269 0.187666 0.157927 0.119675 0.0732808 0.020134 -0.0370964 -0.0944155 -0.146436 -0.186743 -0.208484 -0.205289 -0.172549 -0.108858 -0.0173551 0.0933029 0.20881 0.31047 0.377806 0.392709 0.344511 0.235027 0.0819069 -0.0811658 -0.208908 -0.253781 -0.179122 0.0267543 0.339786 0.69739 1.00705 1.16676 1.09342 0.751727 0.173445 -0.541329 -1.24465 -1.77901 -2.02216 -1.92348 -1.51866 -0.916749 -0.264572 0.298374 0.67792 0.843478 0.8231 0.681064 0.489745 0.307014 0.165504 0.0736583 0.0239464 0.00252789 -0.00364588 -0.00357873 -0.0020315 -0.000803734 -0.000190906 1.29504e-05 4.07173e-05 2.3409e-05 7.80387e-06 1.1141e-06 -4.61688e-07 -3.91994e-07 -1.41371e-07 -2.21568e-08 5.55521e-09 4.78936e-09 1.47055e-09 1.4973e-10 -6.81101e-11 -3.62167e-11 -7.35535e-12 6.04963e-14 4.69857e-13 1.30487e-13 1.07185e-14 -3.47637e-15 -1.28871e-15 -1.48405e-16 1.59863e-17 8.07364e-18 1.00283e-18 1.37148e-19 -1.87861e-20 0 0 
0 0 -1.60856e-20 7.19622e-20 6.34886e-19 6.109e-18 1.50007e-17 -1.0832e-16 -1.07752e-15 -3.2119e-15 8.88247e-15 1.215e-13 4.5988e-13 6.01978e-14 -7.73873e-12 -3.89585e-11 -7.23641e-11 1.9067e-10 1.7735e-09 5.68941e-09 5.76829e-09 -3.21325e-08 -1.88655e-07 -4.99199e-07 -4.85309e-07 1.92448e-06 1.13053e-05 3.14819e-05 4.86898e-05 -9.73674e-06 -0.000332774 -0.00122683 -0.00287391 -0.00455742 -0.00313717 0.00899145 0.0453332 0.124066 0.261981 0.463089 0.70497 0.929924 1.04942 0.966896 0.615239 -0.00448844 -0.80173 -1.60728 -2.21817 -2.46253 -2.25966 -1.65074 -0.787581 0.116206 0.852327 1.27813 1.35028 1.12356 0.720152 0.284007 -0.0627372 -0.24851 -0.260802 -0.13641 0.0595497 0.257195 0.400871 0.45984 0.43005 0.328949 0.186536 0.035985 -0.0941192 -0.184393 -0.226183 -0.220576 -0.175895 -0.10451 -0.0199428 0.0654542 0.141923 0.202971 0.245289 0.268293 0.273456 0.263574 0.242091 0.212559 0.178271 0.142049 0.106105 0.0720653 0.0410213 0.0136385 -0.00978478 -0.0291855 -0.0446875 -0.0564419 -0.0646603 -0.0695294 -0.071129 -0.0695294 -0.0646603 -0.0564419 -0.0446875 -0.0291855 -0.00978478 0.0136385 0.0410213 0.0720653 0.106105 0.142049 0.178271 0.212559 0.242091 0.263574 0.273456 0.268293 0.245289 0.202971 0.141923 0.0654542 -0.0199428 -0.10451 -0.175895 -0.220576 -0.226183 -0.184393 -0.0941192 0.035985 0.186536 0.328949 0.43005 0.45984 0.400871 0.257195 0.0595497 -0.13641 -0.260802 -0.24851 -0.0627372 0.284007 0.720152 1.12356 1.35028 1.27813 0.852337 0.116223 -0.787573 -1.65073 -2.25965 -2.46252 -2.21816 -1.60728 -0.801728 -0.00448638 0.615238 0.966898 1.04942 0.929924 0.704971 0.463088 0.261981 0.124066 0.0453334 0.0089915 -0.00313716 -0.00455743 -0.00287391 -0.00122682 -0.000332772 -9.75034e-06 4.86099e-05 3.12614e-05 1.1208e-05 1.90733e-06 -4.81436e-07 -4.95072e-07 -1.87088e-07 -3.18577e-08 5.72744e-09 5.64535e-09 1.75949e-09 1.89054e-10 -7.18521e-11 -3.86674e-11 -7.67908e-12 6.04873e-14 4.56615e-13 1.20607e-13 8.811e-15 -3.19023e-15 -1.06987e-15 -1.07514e-16 1.49149e-17 6.259e-18 1.56289e-18 1.22095e-19 0 0 