<?xml version="1.0"?>
<VTKFile type="ImageData" version="0.1" byte_order="LittleEndian">
<ImageData WholeExtent="0 199 0 199 0 0" Origin="0 0 0" Spacing="15 15 0">
<Piece Extent="0 199 0 199 0 0">
<PointData Scalars="Amplitude">
<DataArray type="Float32" Name="Amplitude" format="ascii">
0 0 0 0 0 0 0 0 0 0 0 0 0 0 0 0 0 0 0 0 0 0 0 0 0 0 0 0 0 0 0 0 0 0 0 0 0 0 0 0 0 0 0 0 0 0 0 0 0 0 0 0 0 0 0 0 0 0 0 0 0 0 0 0 0 0 0 0 0 0 0 0 0 0 0 0 0 0 0 0 0 0 0 0 0 0 0 0 0 0 0 0 0 0 0 0 0 0 0 0 0 0 0 0 0 0 0 0 0 0 0 0 0 0 0 0 0 0 0 0 0 0 0 0 0 0 0 0 0 0 0 0 0 0 0 0 0 0 0 0 0 0 0 0 0 0 0 0 0 0 0 0 0 0 0 0 0 0 0 0 0 0 0 0 0 0 0 0 0 0 0 0 0 0 0 0 0 0 0 0 0 0 0 0 0 0 0 0 0 0 0 0 0 0 0 0 0 0 0 0 
0 0 0 0 0 0 0 0 0 0 0 0 0 0 0 0 0 0 0 0 0 0 0 0 0 0 0 0 0 0 0 0 0 0 0 0 0 0 0 0 0 0 0 0 0 0 0 0 0 0 0 0 0 0 0 0 0 0 0 0 0 0 0 0 0 0 0 0 0 0 0 0 0 0 0 0 0 0 0 0 0 0 0 0 0 0 0 0 0 0 0 0 0 0 0 0 0 0 0 0 0 0 0 0 0 0 0 0 0 0 0 0 0 0 0 0 0 0 0 0 0 0 0 0 0 0 0 0 0 0 0 0 0 0 0 0 0 0 0 0 0 0 0 0 0 0 0 0 0 0 0 0 0 0 0 0 0 0 0 0 0 0 0 0 0 0 0 0 0 0 0 0 0 0 0 0 0 0 0 0 0 0 0 0 0 0 0 0 0 0 0 0 0 0 0 0 0 0 0 0 
0 0 0 0 0 0 0 0 0 0 0 0 0 0 0 0 0 0 0 0 0 0 0 0 0 0 0 0 0 0 0 0 0 0 0 0 0 0 0 0 0 0 0 0 0 0 0 0 0 0 0 0 0 0 0 0 0 0 0 0 0 0 0 0 0 0 0 0 0 0 0 0 0 0 0 0 0 0 0 0 0 0 0 0 0 0 0 0 0 0 0 0 0 0 0 0 0 0 0 0 0 0 0 0 0 0 0 0 0 0 0 0 0 0 0 0 0 0 0 0 0 0 0 0 0 0 0 0 0 0 0 0 0 0 0 0 0 0 0 0 0 0 0 0 0 0 0 0 0 0 0 0 0 0 0 0 0 0 0 0 0 0 0 0 0 0 0 0 0 0 0 0 0 0 0 0 0 0 0 0 0 0 0 0 0 0 0 0 0 0 0 0 0 0 0 0 0 0 0 0 
0 0 0 0 0 0 0 0 0 0 0 0 0 0 0 0 0 0 0 0 0 0 0 0 0 0 0 0 0 0 0 0 0 0 0 0 0 0 0 0 0 0 0 0 0 0 0 0 0 0 0 0 0 0 0 0 0 0 0 0 0 0 0 0 0 0 0 0 0 0 0 0 0 0 0 0 0 0 0 0 0 0 0 0 0 0 0 0 0 0 0 0 0 0 0 0 0 0 0 0 0 0 0 0 0 0 0 0 0 0 0 0 0 0 0 0 0 0 0 0 0 0 0 0 0 0 0 0 0 0 0 0 0 0 0 0 0 0 0 0 0 0 0 0 0 0 0 0 0 0 0 0 0 0 0 0 0 0 0 0 0 0 0 0 0 0 0 0 0 0 0 0 0 0 0 0 0 0 0 0 0 0 0 0 0 0 0 0 0 0 0 0 0 0 0 0 0 0 0 0 
0 0 0 0 0 0 0 0 0 0 0 0 0 0 0 0 0 0 0 0 0 0 0 0 0 0 0 0 0 0 0 0 0 0 0 0 0 0 0 0 0 0 0 0 0 0 0 0 0 0 0 0 0 0 0 0 0 0 0 0 0 0 0 0 0 0 0 0 0 0 0 0 0 0 0 0 0 0 0 0 0 0 0 0 0 0 0 0 0 0 0 0 0 0 0 0 0 0 0 0 0 0 0 0 0 0 0 0 0 0 0 0 0 0 0 0 0 0 0 0 0 0 0 0 0 0 0 0 0 0 0 0 0 0 0 0 0 0 0 0 0 0 0 0 0 0 0 0 0 0 0 0 0 0 0 0 0 0 0 0 0 0 0 0 0 0 0 0 0 0 0 0 0 0 0 0 0 0 0 0 0 0 0 0 0 0 0 0 0 0 0 0 0 0 0 0 0 0 0 0 
0 0 0 0 0 0 0 0 0 0 0 0 0 0 0 0 0 0 0 0 0 0 0 0 0 0 0 0 0 0 0 0 0 0 0 0 0 0 0 0 0 0 0 0 0 0 0 0 0 0 0 0 0 0 0 0 0 0 0 0 0 0 0 0 0 0 0 0 0 0 0 0 0 0 0 0 0 0 0 0 0 0 0 0 0 0 0 0 0 0 0 0 0 0 0 0 0 0 0 0 0 0 0 0 0 0 0 0 0 0 0 0 0 0 0 0 0 0 0 0 0 0 0 0 0 0 0 0 0 0 0 0 0 0 0 0 0 0 0 0 0 0 0 0 0 0 0 0 0 0 0 0 0 0 0 0 0 0 0 0 0 0 0 0 0 0 0 0 0 0 0 0 0 0 0 0 0 0 0 0 0 0 0 0 0 0 0 0 0 0 0 0 0 0 0 0 0 0 0 0 
0 0 0 0 0 0 0 0 0 0 0 0 0 0 0 0 0 0 0 0 0 0 0 0 0 0 0 0 0 0 0 0 0 0 0 0 0 0 0 0 0 0 0 0 0 0 0 0 0 0 0 0 0 0 0 0 0 0 0 0 0 0 0 0 0 0 0 0 0 0 0 0 0 0 0 0 0 0 0 0 0 0 0 0 0 0 0 0 0 0 0 0 0 0 0 0 0 0 0 0 0 0 0 0 0 0 0 0 0 0 0 0 0 0 0 0 0 0 0 0 0 0 0 0 0 0 0 0 0 0 0 0 0 0 0 0 0 0 0 0 0 0 0 0 0 0 0 0 0 0 0 0 0 0 0 0 0 0 0 0 0 0 0 0 0 0 0 0 0 0 0 0 0 0 0 0 0 0 0 0 0 0 0 0 0 0 0 0 0 0 0 0 0 0 0 0 0 0 0 0 
0 0 0 0 0 0 0 0 0 0 0 0 0 0 0 0 0 0 0 0 0 0 0 0 0 0 0 0 0 0 0 0 0 0 0 0 0 0 0 0 0 0 0 0 0 0 0 0 0 0 0 0 0 0 0 0 0 0 0 0 0 0 0 0 0 0 0 0 0 0 0 0 0 0 0 0 0 0 0 0 0 0 0 0 0 0 0 0 0 0 0 0 0 0 0 0 0 0 0 0 0 0 0 0 0 0 0 0 0 0 0 0 0 0 0 0 0 0 0 0 0 0 0 0 0 0 0 0 0 0 0 0 0 0 0 0 0 0 0 0 0 0 0 0 0 0 0 0 0 0 0 0 0 0 0 0 0 0 0 0 0 0 0 0 0 0 0 0 0 0 0 0 0 0 0 0 0 0 0 0 0 0 0 0 0 0 0 0 0 0 0 0 0 0 0 0 0 0 0 0 
0 0 0 0 0 0 0 0 0 0 0 0 0 0 0 0 0 0 0 0 0 0 0 0 0 0 0 0 0 0 0 0 0 0 0 0 0 0 0 0 0 0 0 0 0 0 0 0 0 0 0 0 0 0 0 0 0 0 0 0 0 0 0 0 0 0 0 0 0 0 0 0 0 0 0 0 0 0 0 0 0 0 0 0 0 0 0 0 0 0 0 0 0 0 0 0 0 0 0 0 0 0 0 0 0 0 0 0 0 0 0 0 0 0 0 0 0 0 0 0 0 0 0 0 0 0 0 0 0 0 0 0 0 0 0 0 0 0 0 0 0 0 0 0 0 0 0 0 0 0 0 0 0 0 0 0 0 0 0 0 0 0 0 0 0 0 0 0 0 0 0 0 0 0 0 0 0 0 0 0 0 0 0 0 0 0 0 0 0 0 0 0 0 0 0 0 0 0 0 0 
0 0 0 0 0 0 0 0 0 0 0 0 0 0 0 0 0 0 0 0 0 0 0 0 0 0 0 0 0 0 0 0 0 0 0 0 0 0 0 0 0 0 0 0 0 0 0 0 0 0 0 0 0 0 0 0 0 0 0 0 0 0 0 0 0 0 0 0 0 0 0 0 0 0 0 0 0 0 0 0 0 0 0 0 0 0 0 0 0 0 0 0 0 0 0 0 0 0 0 0 0 0 0 0 0 0 0 0 0 0 0 0 0 0 0 0 0 0 0 0 0 0 0 0 0 0 0 0 0 0 0 0 0 0 0 0 0 0 0 0 0 0 0 0 0 0 0 0 0 0 0 0 0 0 0 0 0 0 0 0 0 0 0 0 0 0 0 0 0 0 0 0 0 0 0 0 0 0 0 0 0 0 0 0 0 0 0 0 0 0 0 0 0 0 0 0 0 0 0 0 
0 0 0 0 0 0 0 0 0 0 0 0 0 0 0 0 0 0 0 0 0 0 0 0 0 0 0 0 0 0 0 0 0 0 0 0 0 0 0 0 0 0 0 0 0 0 0 0 0 0 0 0 0 0 0 0 0 0 0 0 0 0 0 0 0 0 0 0 0 0 0 0 0 0 0 0 0 0 0 0 0 0 0 0 0 0 0 0 0 0 0 0 0 0 0 0 0 0 0 0 0 0 0 0 0 0 0 0 0 0 0 0 0 0 0 0 0 0 0 0 0 0 0 0 0 0 0 0 0 0 0 0 0 0 0 0 0 0 0 0 0 0 0 0 0 0 0 0 0 0 0 0 0 0 0 0 0 0 0 0 0 0 0 0 0 0 0 0 0 0 0 0 0 0 0 0 0 0 0 0 0 0 0 0 0 0 0 0 0 0 0 0 0 0 0 0 0 0 0 0 
0 0 0 0 0 0 0 0 0 0 0 0 0 0 0 0 0 0 0 0 0 0 0 0 0 0 0 0 0 0 0 0 0 0 0 0 0 0 0 0 0 0 0 0 0 0 0 0 0 0 0 0 0 0 0 0 0 0 0 0 0 0 0 0 0 0 0 0 0 0 0 0 0 0 0 0 0 0 0 0 0 0 0 0 0 0 0 0 0 0 0 0 0 0 0 0 0 0 0 0 0 0 0 0 0 0 0 0 0 0 0 0 0 0 0 0 0 0 0 0 0 0 0 0 0 0 0 0 0 0 0 0 0 0 0 0 0 0 0 0 0 0 0 0 0 0 0 0 0 0 0 0 0 0 0 0 0 0 0 0 0 0 0 0 0 0 0 0 0 0 0 0 0 0 0 0 0 0 0 0 0 0 0 0 0 0 0 0 0 0 0 0 0 0 0 0 0 0 0 0 
0 0 0 0 0 0 0 0 0 0 0 0 0 0 0 0 0 0 0 0 0 0 0 0 0 0 0 0 0 0 0 0 0 0 0 0 0 0 0 0 0 0 0 0 0 0 0 0 0 0 0 0 0 0 0 0 0 0 0 0 0 0 0 0 0 0 0 0 0 0 0 0 0 0 0 0 0 0 0 0 0 0 0 0 0 0 0 0 0 0 0 0 0 0 0 0 0 0 0 0 0 0 0 0 0 0 0 0 0 0 0 0 0 0 0 0 0 0 0 0 0 0 0 0 0 0 0 0 0 0 0 0 0 0 0 0 0 0 0 0 0 0 0 0 0 0 0 0 0 0 0 0 0 0 0 0 0 0 0 0 0 0 0 0 0 0 0 0 0 0 0 0 0 0 0 0 0 0 0 0 0 0 0 0 0 0 0 0 0 0 0 0 0 0 0 0 0 0 0 0 
0 0 0 0 0 0 0 0 0 0 0 0 0 0 0 0 0 0 0 0 0 0 0 0 0 0 0 0 0 0 0 0 0 0 0 0 0 0 0 0 0 0 0 0 0 0 0 0 0 0 0 0 0 0 0 0 0 0 0 0 0 0 0 0 0 0 0 0 0 0 0 0 0 0 0 0 0 0 0 0 0 0 0 0 0 0 0 0 0 0 0 0 0 0 0 -0 -0 -0 -0 -0 -0 -0 -0 -0 -0 -0 0 0 0 0 0 0 0 0 0 0 0 0 0 0 0 0 0 0 0 0 0 0 0 0 0 0 0 0 0 0 0 0 0 0 0 0 0 0 0 0 0 0 0 0 0 0 0 0 0 0 0 0 0 0 0 0 0 0 0 0 0 0 0 0 0 0 0 0 0 0 0 0 0 0 0 0 0 0 0 0 0 0 0 0 0 0 0 0 0 0 0 0 0 0 
0 0 0 0 0 0 0 0 0 0 0 0 0 0 0 0 0 0 0 0 0 0 0 0 0 0 0 0 0 0 0 0 0 0 0 0 0 0 0 0 0 0 0 0 0 0 0 0 0 0 0 0 0 0 0 0 0 0 0 0 0 0 0 0 0 0 0 0 0 0 0 0 0 0 0 0 0 0 0 0 0 0 0 0 0 0 0 0 0 0 0 -0 -0 -0 -0 -0 -0 -0 -0 -0 -0 -0 -0 -0 -0 -0 -0 -0 -0 -0 0 0 0 0 0 0 0 0 0 0 0 0 0 0 0 0 0 0 0 0 0 0 0 0 0 0 0 0 0 0 0 0 0 0 0 0 0 0 0 0 0 0 0 0 0 0 0 0 0 0 0 0 0 0 0 0 0 0 0 0 0 0 0 0 0 0 0 0 0 0 0 0 0 0 0 0 0 0 0 0 0 0 0 0 0 0 0 0 0 0 
0 0 0 0 0 0 0 0 0 0 0 0 0 0 0 0 0 0 0 0 0 0 0 0 0 0 0 0 0 0 0 0 0 0 0 0 0 0 0 0 0 0 0 0 0 0 0 0 0 0 0 0 0 0 0 0 0 0 0 0 0 0 0 0 0 0 0 0 0 0 0 0 0 0 0 0 0 0 0 0 0 0 0 0 0 0 0 0 -0 -0 -0 -0 -0 0 0 2.92498e-44 1.05856e-43 2.25641e-43 3.67711e-43 4.69389e-43 4.9446e-43 4.69389e-43 3.67711e-43 2.25641e-43 1.05856e-43 2.92498e-44 0 0 -0 -0 -0 -0 -0 0 0 0 0 0 0 0 0 0 0 0 0 0 0 0 0 0 0 0 0 0 0 0 0 0 0 0 0 0 0 0 0 0 0 0 0 0 0 0 0 0 0 0 0 0 0 0 0 0 0 0 0 0 0 0 0 0 0 0 0 0 0 0 0 0 0 0 0 0 0 0 0 0 0 0 0 0 0 0 0 0 0 0 0 0 0 0 
0 0 0 0 0 0 0 0 0 0 0 0 0 0 0 0 0 0 0 0 0 0 0 0 0 0 0 0 0 0 0 0 0 0 0 0 0 0 0 0 0 0 0 0 0 0 0 0 0 0 0 0 0 0 0 0 0 0 0 0 0 0 0 0 0 0 0 0 0 0 0 0 0 0 0 0 0 0 0 0 0 0 0 0 0 0 -0 -0 -0 -0 0 3.90445e-44 2.48212e-43 8.56191e-43 1.95083e-42 3.61441e-42 5.69911e-42 7.82146e-42 9.69978e-42 1.08879e-41 1.13494e-41 1.08879e-41 9.69978e-42 7.82146e-42 5.69911e-42 3.61441e-42 1.95083e-42 8.56191e-43 2.48212e-43 3.90445e-44 0 -0 -0 -0 -0 0 0 0 0 0 0 0 0 0 0 0 0 0 0 0 0 0 0 0 0 0 0 0 0 0 0 0 0 0 0 0 0 0 0 0 0 0 0 0 0 0 0 0 0 0 0 0 0 0 0 0 0 0 0 0 0 0 0 0 0 0 0 0 0 0 0 0 0 0 0 0 0 0 0 0 0 0 0 0 0 0 0 0 0 0 
0 0 0 0 0 0 0 0 0 0 0 0 0 0 0 0 0 0 0 0 0 0 0 0 0 0 0 0 0 0 0 0 0 0 0 0 0 0 0 0 0 0 0 0 0 0 0 0 0 0 0 0 0 0 0 0 0 0 0 0 0 0 0 0 0 0 0 0 0 0 0 0 0 0 0 0 0 0 0 0 0 0 0 0 0 -0 -0 -0 4.18765e-45 2.01007e-43 1.02737e-42 3.12817e-42 6.83145e-42 1.19627e-41 1.73438e-41 2.08531e-41 2.09047e-41 1.7295e-41 1.15467e-41 6.30241e-42 4.30072e-42 6.30241e-42 1.15467e-41 1.7295e-41 2.09047e-41 2.08531e-41 1.73438e-41 1.19627e-41 6.83145e-42 3.12817e-42 1.02737e-42 2.01007e-43 4.18765e-45 -0 -0 -0 0 0 0 0 0 0 0 0 0 0 0 0 0 0 0 0 0 0 0 0 0 0 0 0 0 0 0 0 0 0 0 0 0 0 0 0 0 0 0 0 0 0 0 0 0 0 0 0 0 0 0 0 0 0 0 0 0 0 0 0 0 0 0 0 0 0 0 0 0 0 0 0 0 0 0 0 0 0 0 0 0 0 0 0 
0 0 0 0 0 0 0 0 0 0 0 0 0 0 0 0 0 0 0 0 0 0 0 0 0 0 0 0 0 0 0 0 0 0 0 0 0 0 0 0 0 0 0 0 0 0 0 0 0 0 0 0 0 0 0 0 0 0 0 0 0 0 0 0 0 0 0 0 0 0 0 0 0 0 0 0 0 0 0 0 0 0 0 -0 -0 -0 8.3829e-45 3.15756e-43 1.69055e-42 5.14291e-42 1.05708e-41 1.41056e-41 5.54948e-42 -3.06772e-41 -1.10251e-40 -2.39662e-40 -4.09654e-40 -5.9506e-40 -7.61814e-40 -8.7738e-40 -9.18594e-40 -8.7738e-40 -7.61814e-40 -5.9506e-40 -4.09654e-40 -2.39662e-40 -1.10251e-40 -3.06772e-41 5.54948e-42 1.41056e-41 1.05708e-41 5.14291e-42 1.69055e-42 3.15756e-43 8.3829e-45 -0 -0 -0 0 0 0 0 0 0 0 0 0 0 0 0 0 0 0 0 0 0 0 0 0 0 0 0 0 0 0 0 0 0 0 0 0 0 0 0 0 0 0 0 0 0 0 0 0 0 0 0 0 0 0 0 0 0 0 0 0 0 0 0 0 0 0 0 0 0 0 0 0 0 0 0 0 0 0 0 0 0 0 0 0 0 
0 0 0 0 0 0 0 0 0 0 0 0 0 0 0 0 0 0 0 0 0 0 0 0 0 0 0 0 0 0 0 0 0 0 0 0 0 0 0 0 0 0 0 0 0 0 0 0 0 0 0 0 0 0 0 0 0 0 0 0 0 0 0 0 0 0 0 0 0 0 0 0 0 0 0 0 0 0 0 0 0 -0 -0 -0 0 2.72659e-43 1.71565e-42 5.46576e-42 9.45916e-42 2.18127e-43 -5.82399e-41 -2.25615e-40 -5.6404e-40 -1.09419e-39 -1.75681e-39 -2.41546e-39 -2.9171e-39 -3.17306e-39 -3.20838e-39 -3.14069e-39 -3.09966e-39 -3.14069e-39 -3.20838e-39 -3.17306e-39 -2.9171e-39 -2.41546e-39 -1.75681e-39 -1.09419e-39 -5.6404e-40 -2.25615e-40 -5.82399e-41 2.18127e-43 9.45916e-42 5.46576e-42 1.71565e-42 2.72659e-43 0 -0 -0 -0 0 0 0 0 0 0 0 0 0 0 0 0 0 0 0 0 0 0 0 0 0 0 0 0 0 0 0 0 0 0 0 0 0 0 0 0 0 0 0 0 0 0 0 0 0 0 0 0 0 0 0 0 0 0 0 0 0 0 0 0 0 0 0 0 0 0 0 0 0 0 0 0 0 0 0 0 0 0 0 0 
0 0 0 0 0 0 0 0 0 0 0 0 0 0 0 0 0 0 0 0 0 0 0 0 0 0 0 0 0 0 0 0 0 0 0 0 0 0 0 0 0 0 0 0 0 0 0 0 0 0 0 0 0 0 0 0 0 0 0 0 0 0 0 0 0 0 0 0 0 0 0 0 0 0 0 0 0 0 0 0 -0 -0 0 1.23128e-43 1.25926e-42 4.74322e-42 7.47442e-42 -1.3968e-41 -1.27554e-40 -4.50379e-40 -1.06859e-39 -1.83458e-39 -2.1285e-39 -8.06078e-40 3.46049e-39 1.15063e-38 2.30209e-38 3.63394e-38 4.88359e-38 5.77307e-38 6.09498e-38 5.77307e-38 4.88359e-38 3.63394e-38 2.30209e-38 1.15063e-38 3.46049e-39 -8.06078e-40 -2.1285e-39 -1.83458e-39 -1.06859e-39 -4.50379e-40 -1.27554e-40 -1.3968e-41 7.47442e-42 4.74322e-42 1.25926e-42 1.23128e-43 0 -0 -0 0 0 0 0 0 0 0 0 0 0 0 0 0 0 0 0 0 0 0 0 0 0 0 0 0 0 0 0 0 0 0 0 0 0 0 0 0 0 0 0 0 0 0 0 0 0 0 0 0 0 0 0 0 0 0 0 0 0 0 0 0 0 0 0 0 0 0 0 0 0 0 0 0 0 0 0 0 0 0 
0 0 0 0 0 0 0 0 0 0 0 0 0 0 0 0 0 0 0 0 0 0 0 0 0 0 0 0 0 0 0 0 0 0 0 0 0 0 0 0 0 0 0 0 0 0 0 0 0 0 0 0 0 0 0 0 0 0 0 0 0 0 0 0 0 0 0 0 0 0 0 0 0 0 0 0 0 0 -0 -0 -0 2.09991e-44 6.80372e-43 3.58945e-42 7.2517e-42 -1.18533e-41 -1.38533e-40 -5.23485e-40 -1.17981e-39 -1.34009e-39 1.55326e-39 1.24501e-38 3.76639e-38 8.17743e-38 1.43951e-37 2.16511e-37 2.87441e-37 3.45641e-37 3.85386e-37 4.06993e-37 4.1363e-37 4.06993e-37 3.85386e-37 3.45641e-37 2.87441e-37 2.16511e-37 1.43951e-37 8.17743e-38 3.76639e-38 1.24501e-38 1.55326e-39 -1.34009e-39 -1.17981e-39 -5.23485e-40 -1.38533e-40 -1.18533e-41 7.2517e-42 3.58945e-42 6.80372e-43 2.09991e-44 -0 -0 -0 0 0 0 0 0 0 0 0 0 0 0 0 0 0 0 0 0 0 0 0 0 0 0 0 0 0 0 0 0 0 0 0 0 0 0 0 0 0 0 0 0 0 0 0 0 0 0 0 0 0 0 0 0 0 0 0 0 0 0 0 0 0 0 0 0 0 0 0 0 0 0 0 0 0 0 0 0 
0 0 0 0 0 0 0 0 0 0 0 0 0 0 0 0 0 0 0 0 0 0 0 0 0 0 0 0 0 0 0 0 0 0 0 0 0 0 0 0 0 0 0 0 0 0 0 0 0 0 0 0 0 0 0 0 0 0 0 0 0 0 0 0 0 0 0 0 0 0 0 0 0 0 0 0 0 -0 -0 0 2.26887e-43 2.12881e-42 6.87243e-42 -4.20161e-43 -9.71131e-41 -4.49887e-40 -1.02343e-39 -3.5605e-40 6.86611e-39 3.16804e-38 8.74402e-38 1.76707e-37 2.7181e-37 3.03946e-37 1.78175e-37 -1.83234e-37 -7.89702e-37 -1.55486e-36 -2.31226e-36 -2.86913e-36 -3.07382e-36 -2.86913e-36 -2.31226e-36 -1.55486e-36 -7.89702e-37 -1.83234e-37 1.78175e-37 3.03946e-37 2.7181e-37 1.76707e-37 8.74402e-38 3.16804e-38 6.86611e-39 -3.5605e-40 -1.02343e-39 -4.49887e-40 -9.71131e-41 -4.20161e-43 6.87243e-42 2.12881e-42 2.26887e-43 0 -0 -0 0 0 0 0 0 0 0 0 0 0 0 0 0 0 0 0 0 0 0 0 0 0 0 0 0 0 0 0 0 0 0 0 0 0 0 0 0 0 0 0 0 0 0 0 0 0 0 0 0 0 0 0 0 0 0 0 0 0 0 0 0 0 0 0 0 0 0 0 0 0 0 0 0 0 0 0 
0 0 0 0 0 0 0 0 0 0 0 0 0 0 0 0 0 0 0 0 0 0 0 0 0 0 0 0 0 0 0 0 0 0 0 0 0 0 0 0 0 0 0 0 0 0 0 0 0 0 0 0 0 0 0 0 0 0 0 0 0 0 0 0 0 0 0 0 0 0 0 0 0 0 0 0 -0 -0 2.10144e-44 8.54585e-43 4.90756e-42 7.90561e-42 -4.25401e-41 -3.13445e-40 -8.77211e-40 -2.5563e-40 8.33707e-39 4.04693e-38 1.11423e-37 1.94327e-37 1.4031e-37 -3.94834e-37 -1.92577e-36 -4.95155e-36 -9.66852e-36 -1.57621e-35 -2.24395e-35 -2.87016e-35 -3.36776e-35 -3.68191e-35 -3.78857e-35 -3.68191e-35 -3.36776e-35 -2.87016e-35 -2.24395e-35 -1.57621e-35 -9.66852e-36 -4.95155e-36 -1.92577e-36 -3.94834e-37 1.4031e-37 1.94327e-37 1.11423e-37 4.04693e-38 8.33707e-39 -2.5563e-40 -8.77211e-40 -3.13445e-40 -4.25401e-41 7.90561e-42 4.90756e-42 8.54585e-43 2.10144e-44 -0 -0 0 0 0 0 0 0 0 0 0 0 0 0 0 0 0 0 0 0 0 0 0 0 0 0 0 0 0 0 0 0 0 0 0 0 0 0 0 0 0 0 0 0 0 0 0 0 0 0 0 0 0 0 0 0 0 0 0 0 0 0 0 0 0 0 0 0 0 0 0 0 0 0 0 0 0 
0 0 0 0 0 0 0 0 0 0 0 0 0 0 0 0 0 0 0 0 0 0 0 0 0 0 0 0 0 0 0 0 0 0 0 0 0 0 0 0 0 0 0 0 0 0 0 0 0 0 0 0 0 0 0 0 0 0 0 0 0 0 0 0 0 0 0 0 0 0 0 0 0 0 -0 -0 -0 1.6114e-43 2.28818e-42 8.61326e-42 -3.23961e-42 -1.62986e-40 -6.91206e-40 -7.95315e-40 5.50691e-39 3.50491e-38 1.03052e-37 1.41948e-37 -1.95503e-37 -1.77212e-36 -5.93044e-36 -1.37909e-35 -2.49037e-35 -3.60833e-35 -4.16749e-35 -3.58174e-35 -1.57825e-35 1.55958e-35 5.00594e-35 7.6826e-35 8.69075e-35 7.6826e-35 5.00594e-35 1.55958e-35 -1.57825e-35 -3.58174e-35 -4.16749e-35 -3.60833e-35 -2.49037e-35 -1.37909e-35 -5.93044e-36 -1.77212e-36 -1.95503e-37 1.41948e-37 1.03052e-37 3.50491e-38 5.50691e-39 -7.95315e-40 -6.91206e-40 -1.62986e-40 -3.23961e-42 8.61326e-42 2.28818e-42 1.6114e-43 -0 -0 -0 0 0 0 0 0 0 0 0 0 0 0 0 0 0 0 0 0 0 0 0 0 0 0 0 0 0 0 0 0 0 0 0 0 0 0 0 0 0 0 0 0 0 0 0 0 0 0 0 0 0 0 0 0 0 0 0 0 0 0 0 0 0 0 0 0 0 0 0 0 0 0 0 0 
0 0 0 0 0 0 0 0 0 0 0 0 0 0 0 0 0 0 0 0 0 0 0 0 0 0 0 0 0 0 0 0 0 0 0 0 0 0 0 0 0 0 0 0 0 0 0 0 0 0 0 0 0 0 0 0 0 0 0 0 0 0 0 0 0 0 0 0 0 0 0 0 0 -0 -0 0 5.84341e-43 4.91856e-42 1.12048e-41 -4.72125e-41 -4.14861e-40 -1.06559e-39 1.6475e-39 2.27849e-38 8.31821e-38 1.14892e-37 -3.44466e-37 -2.60593e-36 -8.70117e-36 -1.91437e-35 -2.75571e-35 -1.42057e-35 5.56395e-35 2.22628e-34 5.14419e-34 9.26696e-34 1.4163e-33 1.91146e-33 2.3328e-33 2.6137e-33 2.71204e-33 2.6137e-33 2.3328e-33 1.91146e-33 1.4163e-33 9.26696e-34 5.14419e-34 2.22628e-34 5.56395e-35 -1.42057e-35 -2.75571e-35 -1.91437e-35 -8.70117e-36 -2.60593e-36 -3.44466e-37 1.14892e-37 8.31821e-38 2.27849e-38 1.6475e-39 -1.06559e-39 -4.14861e-40 -4.72125e-41 1.12048e-41 4.91856e-42 5.84341e-43 0 -0 -0 0 0 0 0 0 0 0 0 0 0 0 0 0 0 0 0 0 0 0 0 0 0 0 0 0 0 0 0 0 0 0 0 0 0 0 0 0 0 0 0 0 0 0 0 0 0 0 0 0 0 0 0 0 0 0 0 0 0 0 0 0 0 0 0 0 0 0 0 0 0 0 0 
0 0 0 0 0 0 0 0 0 0 0 0 0 0 0 0 0 0 0 0 0 0 0 0 0 0 0 0 0 0 0 0 0 0 0 0 0 0 0 0 0 0 0 0 0 0 0 0 0 0 0 0 0 0 0 0 0 0 0 0 0 0 0 0 0 0 0 0 0 0 0 0 -0 -0 3.08286e-44 1.53582e-42 8.92487e-42 6.46279e-42 -1.5834e-40 -8.20822e-40 -7.81337e-40 1.0217e-38 5.81915e-38 1.20564e-37 -1.9736e-37 -2.31219e-36 -8.5634e-36 -1.77806e-35 -1.17099e-35 6.61672e-35 3.21826e-34 8.82494e-34 1.81682e-33 3.04038e-33 4.28349e-33 5.17794e-33 5.43737e-33 5.02757e-33 4.21399e-33 3.44594e-33 3.13487e-33 3.44594e-33 4.21399e-33 5.02757e-33 5.43737e-33 5.17794e-33 4.28349e-33 3.04038e-33 1.81682e-33 8.82494e-34 3.21826e-34 6.61672e-35 -1.17099e-35 -1.77806e-35 -8.5634e-36 -2.31219e-36 -1.9736e-37 1.20564e-37 5.81915e-38 1.0217e-38 -7.81337e-40 -8.20822e-40 -1.5834e-40 6.46279e-42 8.92487e-42 1.53582e-42 3.08286e-44 -0 -0 0 0 0 0 0 0 0 0 0 0 0 0 0 0 0 0 0 0 0 0 0 0 0 0 0 0 0 0 0 0 0 0 0 0 0 0 0 0 0 0 0 0 0 0 0 0 0 0 0 0 0 0 0 0 0 0 0 0 0 0 0 0 0 0 0 0 0 0 0 0 0 
0 0 0 0 0 0 0 0 0 0 0 0 0 0 0 0 0 0 0 0 0 0 0 0 0 0 0 0 0 0 0 0 0 0 0 0 0 0 0 0 0 0 0 0 0 0 0 0 0 0 0 0 0 0 0 0 0 0 0 0 0 0 0 0 0 0 0 0 0 0 -0 -0 -0 1.82169e-43 3.35191e-42 1.38939e-41 -1.79843e-41 -3.82433e-40 -1.28585e-39 1.70584e-39 3.04649e-38 1.08048e-37 2.43333e-38 -1.39552e-36 -6.70024e-36 -1.48162e-35 2.22959e-37 1.31244e-34 5.64797e-34 1.49313e-33 2.80852e-33 3.63834e-33 2.05069e-33 -4.63566e-33 -1.88059e-32 -4.11982e-32 -7.00161e-32 -1.01056e-31 -1.28803e-31 -1.47959e-31 -1.5479e-31 -1.47959e-31 -1.28803e-31 -1.01056e-31 -7.00161e-32 -4.11982e-32 -1.88059e-32 -4.63566e-33 2.05069e-33 3.63834e-33 2.80852e-33 1.49313e-33 5.64797e-34 1.31244e-34 2.22959e-37 -1.48162e-35 -6.70024e-36 -1.39552e-36 2.43333e-38 1.08048e-37 3.04649e-38 1.70584e-39 -1.28585e-39 -3.82433e-40 -1.79843e-41 1.38939e-41 3.35191e-42 1.82169e-43 -0 -0 -0 0 0 0 0 0 0 0 0 0 0 0 0 0 0 0 0 0 0 0 0 0 0 0 0 0 0 0 0 0 0 0 0 0 0 0 0 0 0 0 0 0 0 0 0 0 0 0 0 0 0 0 0 0 0 0 0 0 0 0 0 0 0 0 0 0 0 0 0 0 
0 0 0 0 0 0 0 0 0 0 0 0 0 0 0 0 0 0 0 0 0 0 0 0 0 0 0 0 0 0 0 0 0 0 0 0 0 0 0 0 0 0 0 0 0 0 0 0 0 0 0 0 0 0 0 0 0 0 0 0 0 0 0 0 0 0 0 0 0 -0 -0 0 5.70328e-43 6.56088e-42 1.7732e-41 -8.32511e-41 -7.61446e-40 -1.44327e-39 9.21912e-39 6.75692e-38 1.36212e-37 -4.9196e-37 -4.25655e-36 -1.25573e-35 -4.12481e-36 1.22455e-34 5.97883e-34 1.60403e-33 2.48377e-33 2.02496e-34 -1.21127e-32 -4.46763e-32 -1.07102e-31 -2.02104e-31 -3.20858e-31 -4.44244e-31 -5.50501e-31 -6.25025e-31 -6.66072e-31 -6.82715e-31 -6.86549e-31 -6.82715e-31 -6.66072e-31 -6.25025e-31 -5.50501e-31 -4.44244e-31 -3.20858e-31 -2.02104e-31 -1.07102e-31 -4.46763e-32 -1.21127e-32 2.02496e-34 2.48377e-33 1.60403e-33 5.97883e-34 1.22455e-34 -4.12481e-36 -1.25573e-35 -4.25655e-36 -4.9196e-37 1.36212e-37 6.75692e-38 9.21912e-39 -1.44327e-39 -7.61446e-40 -8.32511e-41 1.7732e-41 6.56088e-42 5.70328e-43 0 -0 -0 0 0 0 0 0 0 0 0 0 0 0 0 0 0 0 0 0 0 0 0 0 0 0 0 0 0 0 0 0 0 0 0 0 0 0 0 0 0 0 0 0 0 0 0 0 0 0 0 0 0 0 0 0 0 0 0 0 0 0 0 0 0 0 0 0 0 0 0 
0 0 0 0 0 0 0 0 0 0 0 0 0 0 0 0 0 0 0 0 0 0 0 0 0 0 0 0 0 0 0 0 0 0 0 0 0 0 0 0 0 0 0 0 0 0 0 0 0 0 0 0 0 0 0 0 0 0 0 0 0 0 0 0 0 0 0 0 -0 -0 4.2039e-45 1.34244e-42 1.1265e-41 1.59846e-41 -2.19965e-40 -1.30005e-39 -4.43588e-40 2.59645e-38 1.20742e-37 4.10197e-38 -1.91615e-36 -9.19829e-36 -1.30306e-35 6.55226e-35 4.59422e-34 1.37422e-33 1.7384e-33 -3.92282e-33 -2.92395e-32 -9.47753e-32 -2.13938e-31 -3.65021e-31 -4.64526e-31 -3.6848e-31 8.13206e-32 9.79167e-31 2.28564e-30 3.80743e-30 5.2416e-30 6.26573e-30 6.63704e-30 6.26573e-30 5.2416e-30 3.80743e-30 2.28564e-30 9.79167e-31 8.13206e-32 -3.6848e-31 -4.64526e-31 -3.65021e-31 -2.13938e-31 -9.47753e-32 -2.92395e-32 -3.92282e-33 1.7384e-33 1.37422e-33 4.59422e-34 6.55226e-35 -1.30306e-35 -9.19829e-36 -1.91615e-36 4.10197e-38 1.20742e-37 2.59645e-38 -4.43588e-40 -1.30005e-39 -2.19965e-40 1.59846e-41 1.1265e-41 1.34244e-42 4.2039e-45 -0 -0 0 0 0 0 0 0 0 0 0 0 0 0 0 0 0 0 0 0 0 0 0 0 0 0 0 0 0 0 0 0 0 0 0 0 0 0 0 0 0 0 0 0 0 0 0 0 0 0 0 0 0 0 0 0 0 0 0 0 0 0 0 0 0 0 0 0 0 
0 0 0 0 0 0 0 0 0 0 0 0 0 0 0 0 0 0 0 0 0 0 0 0 0 0 0 0 0 0 0 0 0 0 0 0 0 0 0 0 0 0 0 0 0 0 0 0 0 0 0 0 0 0 0 0 0 0 0 0 0 0 0 0 0 0 0 -0 -0 4.76441e-44 2.71712e-42 1.75302e-41 3.16693e-43 -4.661e-40 -1.91225e-39 3.26082e-39 5.68452e-38 1.72615e-37 -3.82531e-37 -4.85129e-36 -1.4816e-35 1.08879e-35 2.64667e-34 1.05172e-33 1.57798e-33 -4.24754e-33 -3.42647e-32 -1.15566e-31 -2.47436e-31 -3.08681e-31 6.23469e-32 1.5125e-30 4.82528e-30 1.05715e-29 1.873e-29 2.85329e-29 3.86691e-29 4.7739e-29 5.46841e-29 5.89542e-29 6.03834e-29 5.89542e-29 5.46841e-29 4.7739e-29 3.86691e-29 2.85329e-29 1.873e-29 1.05715e-29 4.82528e-30 1.5125e-30 6.23469e-32 -3.08681e-31 -2.47436e-31 -1.15566e-31 -3.42647e-32 -4.24754e-33 1.57798e-33 1.05172e-33 2.64667e-34 1.08879e-35 -1.4816e-35 -4.85129e-36 -3.82531e-37 1.72615e-37 5.68452e-38 3.26082e-39 -1.91225e-39 -4.661e-40 3.16693e-43 1.75302e-41 2.71712e-42 4.76441e-44 -0 -0 0 0 0 0 0 0 0 0 0 0 0 0 0 0 0 0 0 0 0 0 0 0 0 0 0 0 0 0 0 0 0 0 0 0 0 0 0 0 0 0 0 0 0 0 0 0 0 0 0 0 0 0 0 0 0 0 0 0 0 0 0 0 0 0 0 0 
0 0 0 0 0 0 0 0 0 0 0 0 0 0 0 0 0 0 0 0 0 0 0 0 0 0 0 0 0 0 0 0 0 0 0 0 0 0 0 0 0 0 0 0 0 0 0 0 0 0 0 0 0 0 0 0 0 0 0 0 0 0 0 0 0 0 -0 -0 1.79366e-43 5.06429e-42 2.47904e-41 -4.21469e-41 -8.60193e-40 -2.34456e-39 1.2065e-38 1.05533e-37 1.73415e-37 -1.47002e-36 -9.70646e-36 -1.5443e-35 9.61217e-35 6.68105e-34 1.61327e-33 -1.4949e-33 -2.60365e-32 -1.02284e-31 -2.14608e-31 -1.08856e-31 1.02548e-30 4.73684e-30 1.28579e-29 2.61168e-29 4.23272e-29 5.55261e-29 5.73543e-29 4.0664e-29 3.66999e-30 -4.77339e-29 -1.0101e-28 -1.41129e-28 -1.56032e-28 -1.41129e-28 -1.0101e-28 -4.77339e-29 3.66999e-30 4.0664e-29 5.73543e-29 5.55261e-29 4.23272e-29 2.61168e-29 1.28579e-29 4.73684e-30 1.02548e-30 -1.08856e-31 -2.14608e-31 -1.02284e-31 -2.60365e-32 -1.4949e-33 1.61327e-33 6.68105e-34 9.61217e-35 -1.5443e-35 -9.70646e-36 -1.47002e-36 1.73415e-37 1.05533e-37 1.2065e-38 -2.34456e-39 -8.60193e-40 -4.21469e-41 2.47904e-41 5.06429e-42 1.79366e-43 -0 -0 0 0 0 0 0 0 0 0 0 0 0 0 0 0 0 0 0 0 0 0 0 0 0 0 0 0 0 0 0 0 0 0 0 0 0 0 0 0 0 0 0 0 0 0 0 0 0 0 0 0 0 0 0 0 0 0 0 0 0 0 0 0 0 0 0 
0 0 0 0 0 0 0 0 0 0 0 0 0 0 0 0 0 0 0 0 0 0 0 0 0 0 0 0 0 0 0 0 0 0 0 0 0 0 0 0 0 0 0 0 0 0 0 0 0 0 0 0 0 0 0 0 0 0 0 0 0 0 0 0 0 -0 -0 4.51218e-43 8.53951e-42 3.16483e-41 -1.28838e-40 -1.42847e-39 -2.08923e-39 2.91925e-38 1.71063e-37 2.30343e-38 -3.67162e-36 -1.60462e-35 1.95032e-36 2.96805e-34 1.27141e-33 1.07317e-33 -1.31809e-32 -7.32927e-32 -1.77563e-31 -3.52324e-32 1.4775e-30 6.70564e-30 1.80158e-29 3.32428e-29 3.80851e-29 7.27301e-32 -1.28557e-28 -3.95217e-28 -8.23698e-28 -1.39581e-27 -2.04912e-27 -2.69256e-27 -3.23089e-27 -3.58634e-27 -3.71024e-27 -3.58634e-27 -3.23089e-27 -2.69256e-27 -2.04912e-27 -1.39581e-27 -8.23698e-28 -3.95217e-28 -1.28557e-28 7.27301e-32 3.80851e-29 3.32428e-29 1.80158e-29 6.70564e-30 1.4775e-30 -3.52324e-32 -1.77563e-31 -7.32927e-32 -1.31809e-32 1.07317e-33 1.27141e-33 2.96805e-34 1.95032e-36 -1.60462e-35 -3.67162e-36 2.30343e-38 1.71063e-37 2.91925e-38 -2.08923e-39 -1.42847e-39 -1.28838e-40 3.16483e-41 8.53951e-42 4.51218e-43 -0 -0 0 0 0 0 0 0 0 0 0 0 0 0 0 0 0 0 0 0 0 0 0 0 0 0 0 0 0 0 0 0 0 0 0 0 0 0 0 0 0 0 0 0 0 0 0 0 0 0 0 0 0 0 0 0 0 0 0 0 0 0 0 0 0 0 
0 0 0 0 0 0 0 0 0 0 0 0 0 0 0 0 0 0 0 0 0 0 0 0 0 0 0 0 0 0 0 0 0 0 0 0 0 0 0 0 0 0 0 0 0 0 0 0 0 0 0 0 0 0 0 0 0 0 0 0 0 0 0 -0 -0 -0 9.03838e-43 1.33726e-41 3.55467e-41 -2.81683e-40 -2.16655e-39 -3.11803e-40 5.83512e-38 2.42831e-37 -4.44236e-37 -7.4565e-36 -2.15311e-35 6.07466e-35 6.70307e-34 1.83156e-33 -2.9787e-33 -4.09609e-32 -1.41421e-31 -1.14748e-31 1.11208e-30 6.19908e-30 1.75375e-29 2.75945e-29 -1.65895e-30 -1.60948e-28 -5.91222e-28 -1.42996e-27 -2.71299e-27 -4.28827e-27 -5.81659e-27 -6.89198e-27 -7.23302e-27 -6.83862e-27 -6.0119e-27 -5.2281e-27 -4.91074e-27 -5.2281e-27 -6.0119e-27 -6.83862e-27 -7.23302e-27 -6.89198e-27 -5.81659e-27 -4.28827e-27 -2.71299e-27 -1.42996e-27 -5.91222e-28 -1.60948e-28 -1.65895e-30 2.75945e-29 1.75375e-29 6.19908e-30 1.11208e-30 -1.14748e-31 -1.41421e-31 -4.09609e-32 -2.9787e-33 1.83156e-33 6.70307e-34 6.07466e-35 -2.15311e-35 -7.4565e-36 -4.44236e-37 2.42831e-37 5.83512e-38 -3.11803e-40 -2.16655e-39 -2.81683e-40 3.55467e-41 1.33726e-41 9.03838e-43 -0 -0 -0 0 0 0 0 0 0 0 0 0 0 0 0 0 0 0 0 0 0 0 0 0 0 0 0 0 0 0 0 0 0 0 0 0 0 0 0 0 0 0 0 0 0 0 0 0 0 0 0 0 0 0 0 0 0 0 0 0 0 0 0 0 0 
0 0 0 0 0 0 0 0 0 0 0 0 0 0 0 0 0 0 0 0 0 0 0 0 0 0 0 0 0 0 0 0 0 0 0 0 0 0 0 0 0 0 0 0 0 0 0 0 0 0 0 0 0 0 0 0 0 0 0 0 0 0 0 -0 0 1.7306e-42 1.98298e-41 3.24709e-41 -5.24534e-40 -3.01982e-39 4.18945e-39 1.03009e-37 2.94518e-37 -1.46616e-36 -1.31207e-35 -2.06015e-35 1.95699e-34 1.24238e-33 1.64493e-33 -1.4587e-32 -9.05524e-32 -1.82601e-31 4.279e-31 4.21003e-30 1.41478e-29 2.11143e-29 -3.1581e-29 -2.96482e-28 -1.0173e-27 -2.35932e-27 -4.02481e-27 -4.81172e-27 -2.48319e-27 5.72275e-27 2.19808e-26 4.66495e-26 7.75808e-26 1.10363e-25 1.39397e-25 1.59348e-25 1.66448e-25 1.59348e-25 1.39397e-25 1.10363e-25 7.75808e-26 4.66495e-26 2.19808e-26 5.72275e-27 -2.48319e-27 -4.81172e-27 -4.02481e-27 -2.35932e-27 -1.0173e-27 -2.96482e-28 -3.1581e-29 2.11143e-29 1.41478e-29 4.21003e-30 4.279e-31 -1.82601e-31 -9.05524e-32 -1.4587e-32 1.64493e-33 1.24238e-33 1.95699e-34 -2.06015e-35 -1.31207e-35 -1.46616e-36 2.94518e-37 1.03009e-37 4.18945e-39 -3.01982e-39 -5.24534e-40 3.24709e-41 1.98298e-41 1.7306e-42 0 -0 0 0 0 0 0 0 0 0 0 0 0 0 0 0 0 0 0 0 0 0 0 0 0 0 0 0 0 0 0 0 0 0 0 0 0 0 0 0 0 0 0 0 0 0 0 0 0 0 0 0 0 0 0 0 0 0 0 0 0 0 0 0 
0 0 0 0 0 0 0 0 0 0 0 0 0 0 0 0 0 0 0 0 0 0 0 0 0 0 0 0 0 0 0 0 0 0 0 0 0 0 0 0 0 0 0 0 0 0 0 0 0 0 0 0 0 0 0 0 0 0 0 0 0 0 -0 8.40779e-45 3.0198e-42 2.78522e-41 1.72486e-41 -8.80476e-40 -3.86279e-39 1.29612e-38 1.65343e-37 2.78591e-37 -3.34026e-36 -2.04902e-35 -3.23148e-36 4.49361e-34 1.94445e-33 -6.99786e-34 -3.90151e-32 -1.56828e-31 -6.36618e-32 2.02569e-30 9.87801e-30 1.93359e-29 -2.29057e-29 -2.94072e-28 -1.09708e-27 -2.49557e-27 -3.25881e-27 7.14234e-28 1.73625e-26 5.71696e-26 1.2895e-25 2.34367e-25 3.64619e-25 5.0207e-25 6.26625e-25 7.23379e-25 7.87082e-25 8.21007e-25 8.31335e-25 8.21007e-25 7.87082e-25 7.23379e-25 6.26625e-25 5.0207e-25 3.64619e-25 2.34367e-25 1.2895e-25 5.71696e-26 1.73625e-26 7.14234e-28 -3.25881e-27 -2.49557e-27 -1.09708e-27 -2.94072e-28 -2.29057e-29 1.93359e-29 9.87801e-30 2.02569e-30 -6.36618e-32 -1.56828e-31 -3.90151e-32 -6.99786e-34 1.94445e-33 4.49361e-34 -3.23148e-36 -2.04902e-35 -3.34026e-36 2.78591e-37 1.65343e-37 1.29612e-38 -3.86279e-39 -8.80476e-40 1.72486e-41 2.78522e-41 3.0198e-42 8.40779e-45 -0 0 0 0 0 0 0 0 0 0 0 0 0 0 0 0 0 0 0 0 0 0 0 0 0 0 0 0 0 0 0 0 0 0 0 0 0 0 0 0 0 0 0 0 0 0 0 0 0 0 0 0 0 0 0 0 0 0 0 0 0 0 
0 0 0 0 0 0 0 0 0 0 0 0 0 0 0 0 0 0 0 0 0 0 0 0 0 0 0 0 0 0 0 0 0 0 0 0 0 0 0 0 0 0 0 0 0 0 0 0 0 0 0 0 0 0 0 0 0 0 0 0 -0 -1.4013e-45 -3.22299e-44 4.73639e-42 3.72423e-41 -1.63265e-41 -1.36772e-39 -4.48667e-39 2.77829e-38 2.44921e-37 1.22928e-37 -6.38608e-36 -2.85382e-35 4.58947e-35 8.62493e-34 2.52805e-33 -7.50178e-33 -8.1169e-32 -2.0982e-31 4.71335e-31 5.35801e-30 1.68018e-29 3.49924e-30 -1.87911e-28 -8.82196e-28 -2.1156e-27 -1.80008e-27 7.77132e-27 4.27627e-26 1.24304e-25 2.63479e-25 4.37623e-25 5.72447e-25 5.48772e-25 2.41812e-25 -4.1981e-25 -1.40394e-24 -2.56118e-24 -3.65784e-24 -4.44379e-24 -4.72927e-24 -4.44379e-24 -3.65784e-24 -2.56118e-24 -1.40394e-24 -4.1981e-25 2.41812e-25 5.48772e-25 5.72447e-25 4.37623e-25 2.63479e-25 1.24304e-25 4.27627e-26 7.77132e-27 -1.80008e-27 -2.1156e-27 -8.82196e-28 -1.87911e-28 3.49924e-30 1.68018e-29 5.35801e-30 4.71335e-31 -2.0982e-31 -8.1169e-32 -7.50178e-33 2.52805e-33 8.62493e-34 4.58947e-35 -2.85382e-35 -6.38608e-36 1.22928e-37 2.44921e-37 2.77829e-38 -4.48667e-39 -1.36772e-39 -1.63265e-41 3.72423e-41 4.73639e-42 -3.22299e-44 -1.4013e-45 -0 0 0 0 0 0 0 0 0 0 0 0 0 0 0 0 0 0 0 0 0 0 0 0 0 0 0 0 0 0 0 0 0 0 0 0 0 0 0 0 0 0 0 0 0 0 0 0 0 0 0 0 0 0 0 0 0 0 0 0 
0 0 0 0 0 0 0 0 0 0 0 0 0 0 0 0 0 0 0 0 0 0 0 0 0 0 0 0 0 0 0 0 0 0 0 0 0 0 0 0 0 0 0 0 0 0 0 0 0 0 0 0 0 0 0 0 0 0 0 -0 -2.94273e-44 -2.8026e-44 7.04152e-42 4.72546e-41 -7.49737e-41 -1.99506e-39 -4.6007e-39 5.04699e-38 3.37383e-37 -2.69048e-37 -1.08854e-35 -3.50093e-35 1.47218e-34 1.45816e-33 2.4769e-33 -2.18961e-32 -1.4236e-31 -1.77667e-31 1.80541e-30 1.07717e-29 1.90703e-29 -6.95682e-29 -5.58129e-28 -1.66642e-27 -1.48089e-27 9.25265e-27 5.26156e-26 1.56081e-25 3.11136e-25 3.90888e-25 6.31212e-26 -1.22172e-24 -4.09967e-24 -9.03551e-24 -1.60565e-23 -2.46302e-23 -3.37648e-23 -4.22815e-23 -4.91137e-23 -5.34952e-23 -5.49995e-23 -5.34952e-23 -4.91137e-23 -4.22815e-23 -3.37648e-23 -2.46302e-23 -1.60565e-23 -9.03551e-24 -4.09967e-24 -1.22172e-24 6.31212e-26 3.90888e-25 3.11136e-25 1.56081e-25 5.26156e-26 9.25265e-27 -1.48089e-27 -1.66642e-27 -5.58129e-28 -6.95682e-29 1.90703e-29 1.07717e-29 1.80541e-30 -1.77667e-31 -1.4236e-31 -2.18961e-32 2.4769e-33 1.45816e-33 1.47218e-34 -3.50093e-35 -1.08854e-35 -2.69048e-37 3.37383e-37 5.04699e-38 -4.6007e-39 -1.99506e-39 -7.49737e-41 4.72546e-41 7.04152e-42 -2.8026e-44 -2.94273e-44 -0 0 0 0 0 0 0 0 0 0 0 0 0 0 0 0 0 0 0 0 0 0 0 0 0 0 0 0 0 0 0 0 0 0 0 0 0 0 0 0 0 0 0 0 0 0 0 0 0 0 0 0 0 0 0 0 0 0 0 
0 0 0 0 0 0 0 0 0 0 0 0 0 0 0 0 0 0 0 0 0 0 0 0 0 0 0 0 0 0 0 0 0 0 0 0 0 0 0 0 0 0 0 0 0 0 0 0 0 0 0 0 0 0 0 0 0 0 -0 -7.70714e-44 -2.8026e-45 9.98986e-42 5.75962e-41 -1.64845e-40 -2.7585e-39 -3.84658e-39 8.2619e-38 4.33586e-37 -1.0125e-36 -1.70054e-35 -3.61733e-35 3.24561e-34 2.2199e-33 9.38687e-34 -4.74471e-32 -2.15394e-31 6.94719e-32 4.3938e-30 1.75075e-29 3.11708e-30 -2.53209e-28 -1.15739e-27 -1.87644e-27 5.1653e-27 4.28219e-26 1.41685e-25 2.67611e-25 1.35599e-25 -1.04311e-24 -4.65337e-24 -1.22899e-23 -2.47943e-23 -4.11184e-23 -5.78089e-23 -6.97762e-23 -7.22944e-23 -6.33539e-23 -4.51084e-23 -2.35319e-23 -6.28944e-24 2.74315e-25 -6.28944e-24 -2.35319e-23 -4.51084e-23 -6.33539e-23 -7.22944e-23 -6.97762e-23 -5.78089e-23 -4.11184e-23 -2.47943e-23 -1.22899e-23 -4.65337e-24 -1.04311e-24 1.35599e-25 2.67611e-25 1.41685e-25 4.28219e-26 5.1653e-27 -1.87644e-27 -1.15739e-27 -2.53209e-28 3.11708e-30 1.75075e-29 4.3938e-30 6.94719e-32 -2.15394e-31 -4.74471e-32 9.38687e-34 2.2199e-33 3.24561e-34 -3.61733e-35 -1.70054e-35 -1.0125e-36 4.33586e-37 8.2619e-38 -3.84658e-39 -2.7585e-39 -1.64845e-40 5.75962e-41 9.98986e-42 -2.8026e-45 -7.70714e-44 -0 0 0 0 0 0 0 0 0 0 0 0 0 0 0 0 0 0 0 0 0 0 0 0 0 0 0 0 0 0 0 0 0 0 0 0 0 0 0 0 0 0 0 0 0 0 0 0 0 0 0 0 0 0 0 0 0 0 