<?xml version="1.0"?>
<VTKFile type="ImageData" version="0.1" byte_order="LittleEndian">
<ImageData WholeExtent="0 199 0 199 0 0" Origin="0 0 0" Spacing="15 15 0">
<Piece Extent="0 199 0 199 0 0">
<PointData Scalars="Amplitude">
<DataArray type="Float32" Name="Amplitude" format="ascii">
0 0 0 0 0 0 0 0 0 0 0 0 0 0 0 0 0 0 0 0 0 0 0 0 0 0 0 0 0 0 0 0 0 0 0 0 0 0 0 0 0 0 0 0 0 0 0 0 0 0 0 0 0 0 0 0 0 0 0 0 0 0 0 0 0 0 0 0 0 0 0 0 0 0 0 0 0 0 0 0 0 0 0 0 0 0 0 0 0 0 0 0 0 0 0 0 0 0 0 0 0 0 0 0 0 0 0 0 0 0 0 0 0 0 0 0 0 0 0 0 0 0 0 0 0 0 0 0 0 0 0 0 0 0 0 0 0 0 0 0 0 0 0 0 0 0 0 0 0 0 0 0 0 0 0 0 0 0 0 0 0 0 0 0 0 0 0 0 0 0 0 0 0 0 0 0 0 0 0 0 0 0 0 0 0 0 0 0 0 0 0 0 0 0 0 0 0 0 0 0 
0 0 0 0 0 0 0 0 0 0 0 0 0 0 0 0 0 0 0 0 0 0 0 0 0 0 0 0 0 0 0 0 0 0 0 0 0 0 0 0 0 0 0 0 0 0 0 0 0 0 0 0 0 0 0 0 0 0 0 0 0 0 0 0 0 0 0 0 0 0 0 0 0 0 0 0 0 0 0 0 0 0 0 0 0 0 0 0 0 0 0 0 0 0 0 0 0 0 0 0 0 0 0 0 0 0 0 0 0 0 0 0 0 0 0 0 0 0 0 0 0 0 0 0 0 0 0 0 0 0 0 0 0 0 0 0 0 0 0 0 0 0 0 0 0 0 0 0 0 0 0 0 0 0 0 0 0 0 0 0 0 0 0 0 0 0 0 0 0 0 0 0 0 0 0 0 0 0 0 0 0 0 0 0 0 0 0 0 0 0 0 0 0 0 0 0 0 0 0 0 
0 0 0 0 0 0 0 -0 -4.14761e-43 -1.56481e-42 7.1198e-42 9.28674e-41 1.45031e-40 -2.61975e-39 -1.60615e-38 1.10348e-38 4.99026e-37 1.76107e-36 -5.1444e-36 -6.10527e-35 -1.28397e-34 7.48091e-34 5.35018e-33 6.62609e-33 -6.86827e-32 -3.70639e-31 -2.85866e-31 4.75315e-30 2.25428e-29 1.60138e-29 -2.63473e-28 -1.25045e-27 -1.31931e-27 1.12876e-26 6.17333e-26 1.06962e-25 -3.12002e-25 -2.5162e-24 -6.75827e-24 -1.72496e-25 7.15066e-23 3.00882e-22 5.45198e-22 -6.4351e-22 -7.945e-21 -2.80069e-20 -4.84875e-20 3.67685e-20 5.68481e-19 2.13204e-18 4.59741e-18 3.28074e-18 -1.97082e-17 -1.04887e-16 -3.00477e-16 -5.56075e-16 -4.17079e-16 1.53681e-15 8.23793e-15 2.35803e-14 4.8432e-14 6.98851e-14 4.15114e-14 -1.41823e-13 -6.58512e-13 -1.73009e-12 -3.49626e-12 -5.74459e-12 -7.47688e-12 -6.36963e-12 1.70046e-12 2.27781e-11 6.42369e-11 1.33148e-10 2.33462e-10 3.62177e-10 5.05053e-10 6.32793e-10 6.98795e-10 6.39518e-10 3.78091e-10 -1.68758e-10 -1.08116e-09 -2.42527e-09 -4.24288e-09 -6.54336e-09 -9.2993e-09 -1.24467e-08 -1.589e-08 -1.95109e-08 -2.31795e-08 -2.6767e-08 -3.01559e-08 -3.32493e-08 -3.5976e-08 -3.82903e-08 -4.01715e-08 -4.16166e-08 -4.26345e-08 -4.32381e-08 -4.34378e-08 -4.32381e-08 -4.26345e-08 -4.16166e-08 -4.01715e-08 -3.82903e-08 -3.5976e-08 -3.32493e-08 -3.01559e-08 -2.6767e-08 -2.31795e-08 -1.95109e-08 -1.589e-08 -1.24467e-08 -9.2993e-09 -6.54336e-09 -4.24288e-09 -2.42527e-09 -1.08116e-09 -1.68758e-10 3.78091e-10 6.39518e-10 6.98795e-10 6.32793e-10 5.05053e-10 3.62177e-10 2.33462e-10 1.33148e-10 6.42369e-11 2.27781e-11 1.70046e-12 -6.36963e-12 -7.47688e-12 -5.74459e-12 -3.49626e-12 -1.73009e-12 -6.58512e-13 -1.41823e-13 4.15114e-14 6.98851e-14 4.8432e-14 2.35803e-14 8.23793e-15 1.53681e-15 -4.17079e-16 -5.56075e-16 -3.00477e-16 -1.04887e-16 -1.97082e-17 3.28074e-18 4.59741e-18 2.13204e-18 5.68481e-19 3.67685e-20 -4.84875e-20 -2.80069e-20 -7.945e-21 -6.4351e-22 5.45198e-22 3.00882e-22 7.15065e-23 -1.72503e-25 -6.75827e-24 -2.5162e-24 -3.12002e-25 1.06963e-25 6.17334e-26 1.12876e-26 -1.31931e-27 -1.25045e-27 -2.63473e-28 1.60162e-29 2.25457e-29 4.72893e-30 -2.81539e-31 -3.67538e-31 -6.81582e-32 6.57572e-33 5.31143e-33 7.42765e-34 -1.27523e-34 -6.06381e-35 -5.10908e-36 1.74971e-36 4.95791e-37 1.09551e-38 -1.59616e-38 -2.60339e-39 1.44194e-40 9.23068e-41 7.08499e-42 -1.54877e-42 -4.1076e-43 -0 0 0 0 0 0 0 
0 0 0 0 0 0 -8.23585e-45 -4.51215e-43 -3.04066e-42 5.19729e-42 1.53504e-40 4.85945e-40 -3.5341e-39 -3.21949e-38 -2.54435e-38 8.50089e-37 4.2396e-36 -4.63365e-36 -1.21119e-34 -3.75365e-34 1.11119e-33 1.18349e-32 2.41427e-32 -1.22324e-31 -8.78518e-31 -1.28128e-30 9.22025e-30 5.48468e-29 7.02729e-29 -5.33076e-28 -3.05861e-27 -4.54579e-27 2.31267e-26 1.50229e-25 3.05542e-25 -6.12694e-25 -6.09322e-24 -1.77136e-23 -4.47556e-24 1.73799e-22 7.70222e-22 1.44417e-21 -1.5971e-21 -2.08091e-20 -7.36422e-20 -1.23858e-19 1.26496e-19 1.615e-18 5.85388e-18 1.19029e-17 4.87896e-18 -6.85543e-17 -3.21216e-16 -8.5733e-16 -1.40131e-15 -3.15142e-16 7.02681e-15 2.92525e-14 7.52532e-14 1.37559e-13 1.52906e-13 -6.22922e-14 -8.77309e-13 -2.83864e-12 -6.44956e-12 -1.15595e-11 -1.62297e-11 -1.51341e-11 2.08062e-12 5.15777e-11 1.53947e-10 3.29245e-10 5.87504e-10 9.14843e-10 1.25693e-09 1.50325e-09 1.47693e-09 9.34878e-10 -4.17871e-10 -2.89877e-09 -6.80532e-09 -1.23656e-08 -1.96899e-08 -2.87323e-08 -3.92718e-08 -5.09162e-08 -6.31325e-08 -7.52973e-08 -8.67648e-08 -9.69382e-08 -1.05337e-07 -1.1165e-07 -1.15766e-07 -1.17784e-07 -1.1799e-07 -1.1682e-07 -1.14803e-07 -1.12497e-07 -1.1042e-07 -1.08991e-07 -1.08483e-07 -1.08991e-07 -1.1042e-07 -1.12497e-07 -1.14803e-07 -1.1682e-07 -1.1799e-07 -1.17784e-07 -1.15766e-07 -1.1165e-07 -1.05337e-07 -9.69382e-08 -8.67648e-08 -7.52973e-08 -6.31325e-08 -5.09162e-08 -3.92718e-08 -2.87323e-08 -1.96899e-08 -1.23656e-08 -6.80532e-09 -2.89877e-09 -4.17871e-10 9.34878e-10 1.47693e-09 1.50325e-09 1.25693e-09 9.14843e-10 5.87504e-10 3.29245e-10 1.53947e-10 5.15777e-11 2.08062e-12 -1.51341e-11 -1.62297e-11 -1.15595e-11 -6.44956e-12 -2.83864e-12 -8.77309e-13 -6.22922e-14 1.52906e-13 1.37559e-13 7.52532e-14 2.92525e-14 7.02681e-15 -3.15142e-16 -1.40131e-15 -8.5733e-16 -3.21216e-16 -6.85543e-17 4.87896e-18 1.19029e-17 5.85388e-18 1.615e-18 1.26496e-19 -1.23858e-19 -7.36422e-20 -2.08091e-20 -1.5971e-21 1.44417e-21 7.70221e-22 1.73799e-22 -4.47554e-24 -1.77135e-23 -6.09322e-24 -6.12694e-25 3.05543e-25 1.50229e-25 2.31267e-26 -4.54579e-27 -3.0586e-27 -5.33067e-28 7.02151e-29 5.44171e-29 9.15146e-30 -1.27071e-30 -8.71835e-31 -1.21419e-31 2.39702e-32 1.17514e-32 1.10331e-33 -3.72862e-34 -1.20309e-34 -4.60064e-36 4.21255e-36 8.44627e-37 -2.53022e-38 -3.1996e-38 -3.51203e-39 4.83005e-40 1.52548e-40 5.16133e-42 -3.02397e-42 -4.45028e-43 -8.23585e-45 0 0 0 0 0 
0 0 0 0 0 0 -1.04124e-43 -2.56346e-42 -9.63066e-42 7.0208e-41 7.20658e-40 4.5623e-40 -2.41799e-38 -1.19591e-37 2.50958e-37 4.53647e-36 1.1806e-35 -6.74362e-35 -5.4905e-34 -6.53775e-34 8.97514e-33 4.73553e-32 1.16561e-32 -8.00698e-31 -3.20652e-30 1.08544e-30 5.48215e-29 1.90638e-28 -9.20651e-29 -3.11231e-27 -1.07019e-26 9.10925e-28 1.45131e-25 5.59466e-25 4.11374e-25 -5.11354e-24 -2.54099e-23 -4.49461e-23 9.69024e-23 8.82304e-22 2.65529e-21 2.15388e-21 -1.71802e-20 -9.35836e-20 -2.37665e-19 -1.62815e-19 1.40674e-18 7.41511e-18 1.99716e-17 2.54875e-17 -4.62969e-17 -3.82713e-16 -1.26149e-15 -2.59311e-15 -2.39049e-15 6.32831e-15 3.88852e-14 1.16107e-13 2.40235e-13 3.27172e-13 8.04419e-14 -1.16266e-12 -4.48117e-12 -1.1038e-11 -2.0961e-11 -3.1067e-11 -3.14193e-11 -1.5086e-12 9.20101e-11 2.9295e-10 6.45015e-10 1.17023e-09 1.83612e-09 2.51526e-09 2.94574e-09 2.70439e-09 1.20609e-09 -2.26015e-09 -8.45427e-09 -1.80723e-08 -3.16125e-08 -4.92426e-08 -7.06949e-08 -9.5212e-08 -1.21563e-07 -1.48126e-07 -1.7305e-07 -1.94439e-07 -2.10583e-07 -2.20153e-07 -2.22368e-07 -2.17104e-07 -2.04913e-07 -1.86992e-07 -1.65056e-07 -1.41187e-07 -1.17626e-07 -9.65711e-08 -7.99732e-08 -6.93627e-08 -6.5714e-08 -6.93627e-08 -7.99732e-08 -9.65711e-08 -1.17626e-07 -1.41187e-07 -1.65056e-07 -1.86992e-07 -2.04913e-07 -2.17104e-07 -2.22368e-07 -2.20153e-07 -2.10583e-07 -1.94439e-07 -1.7305e-07 -1.48126e-07 -1.21563e-07 -9.5212e-08 -7.06949e-08 -4.92426e-08 -3.16125e-08 -1.80723e-08 -8.45427e-09 -2.26015e-09 1.20609e-09 2.70439e-09 2.94574e-09 2.51526e-09 1.83612e-09 1.17023e-09 6.45015e-10 2.9295e-10 9.20101e-11 -1.5086e-12 -3.14193e-11 -3.1067e-11 -2.0961e-11 -1.1038e-11 -4.48117e-12 -1.16266e-12 8.04419e-14 3.27172e-13 2.40235e-13 1.16107e-13 3.88852e-14 6.32831e-15 -2.39049e-15 -2.59311e-15 -1.26149e-15 -3.82713e-16 -4.62969e-17 2.54875e-17 1.99716e-17 7.41511e-18 1.40674e-18 -1.62815e-19 -2.37665e-19 -9.35836e-20 -1.71802e-20 2.15388e-21 2.65529e-21 8.82303e-22 9.69025e-23 -4.4946e-23 -2.54098e-23 -5.11354e-24 4.11375e-25 5.59467e-25 1.45132e-25 9.10923e-28 -1.07019e-26 -3.11232e-27 -9.24297e-29 1.89148e-28 5.43814e-29 1.07793e-30 -3.18208e-30 -7.94769e-31 1.15783e-32 4.70214e-32 8.91237e-33 -6.49548e-34 -5.45393e-34 -6.6984e-35 1.17317e-35 4.50749e-36 2.493e-37 -1.18856e-37 -2.40302e-38 4.53724e-40 7.16264e-40 6.97727e-41 -9.57837e-42 -2.54071e-42 -1.04124e-43 0 0 0 0 0 
0 0 0 0 0 -1.21493e-43 -2.69389e-42 -9.8568e-42 8.27904e-41 8.19041e-40 2.23475e-40 -3.0738e-38 -1.42269e-37 4.14539e-37 6.16941e-36 1.37253e-35 -1.09782e-34 -7.88221e-34 -5.54474e-34 1.52141e-32 7.04852e-32 -2.78457e-32 -1.4145e-30 -4.84833e-30 5.65319e-30 9.98866e-29 2.87674e-28 -4.28715e-28 -5.88123e-27 -1.642e-26 1.83991e-26 2.93276e-25 9.08028e-25 -1.43716e-25 -1.17719e-23 -4.54772e-23 -4.69919e-23 3.21918e-22 1.83834e-21 4.17989e-21 -1.63961e-21 -4.9153e-20 -1.91873e-19 -3.45069e-19 3.16449e-19 4.48495e-18 1.64251e-17 3.2015e-17 1.15876e-18 -2.49347e-16 -1.05951e-15 -2.60227e-15 -3.35245e-15 3.6531e-15 3.60343e-14 1.21406e-13 2.69824e-13 3.82737e-13 6.6199e-14 -1.61588e-12 -6.23185e-12 -1.54016e-11 -2.87382e-11 -3.95228e-11 -2.80944e-11 4.51762e-11 2.42547e-10 6.39363e-10 1.29302e-09 2.18342e-09 3.12549e-09 3.66661e-09 2.99693e-09 -8.84011e-11 -7.13229e-09 -1.98318e-08 -3.97196e-08 -6.77366e-08 -1.03759e-07 -1.46167e-07 -1.91563e-07 -2.34713e-07 -2.68782e-07 -2.85847e-07 -2.77655e-07 -2.36517e-07 -1.56237e-07 -3.2912e-08 1.34475e-07 3.43763e-07 5.89616e-07 8.63861e-07 1.15605e-06 1.4542e-06 1.74557e-06 2.0175e-06 2.25811e-06 2.45693e-06 2.60534e-06 2.697e-06 2.72799e-06 2.697e-06 2.60534e-06 2.45693e-06 2.25811e-06 2.0175e-06 1.74557e-06 1.4542e-06 1.15605e-06 8.63861e-07 5.89616e-07 3.43763e-07 1.34475e-07 -3.2912e-08 -1.56237e-07 -2.36517e-07 -2.77655e-07 -2.85847e-07 -2.68782e-07 -2.34713e-07 -1.91563e-07 -1.46167e-07 -1.03759e-07 -6.77366e-08 -3.97196e-08 -1.98318e-08 -7.13229e-09 -8.84011e-11 2.99693e-09 3.66661e-09 3.12549e-09 2.18342e-09 1.29302e-09 6.39363e-10 2.42547e-10 4.51762e-11 -2.80944e-11 -3.95228e-11 -2.87382e-11 -1.54016e-11 -6.23185e-12 -1.61588e-12 6.6199e-14 3.82737e-13 2.69824e-13 1.21406e-13 3.60343e-14 3.6531e-15 -3.35245e-15 -2.60227e-15 -1.05951e-15 -2.49347e-16 1.15876e-18 3.2015e-17 1.64251e-17 4.48495e-18 3.16449e-19 -3.45069e-19 -1.91873e-19 -4.9153e-20 -1.6396e-21 4.17989e-21 1.83834e-21 3.21918e-22 -4.69918e-23 -4.54771e-23 -1.17719e-23 -1.43716e-25 9.08029e-25 2.93276e-25 1.83992e-26 -1.64206e-26 -5.88333e-27 -4.29347e-28 2.84995e-28 9.90867e-29 5.60932e-30 -4.81273e-30 -1.40429e-30 -2.76251e-32 7.00019e-32 1.511e-32 -5.51159e-34 -7.83076e-34 -1.0906e-34 1.36408e-35 6.13058e-36 4.11864e-37 -1.41407e-37 -3.055e-38 2.2256e-40 8.14185e-40 8.23159e-41 -9.79242e-42 -2.68318e-42 -1.21493e-43 -1.03676e-44 0 0 0 
0 0 0 -8.23585e-45 -1.04124e-43 -2.69389e-42 -9.9975e-42 9.0128e-41 8.95545e-40 5.826e-41 -3.67616e-38 -1.64966e-37 5.88994e-37 7.98188e-36 1.5647e-35 -1.63114e-34 -1.08536e-33 -3.21336e-34 2.39986e-32 1.01223e-31 -1.00857e-31 -2.35166e-30 -7.09186e-30 1.43416e-29 1.72634e-28 4.19239e-28 -1.09736e-27 -1.04789e-26 -2.39944e-26 5.64805e-26 5.49557e-25 1.38907e-24 -1.67343e-24 -2.41339e-23 -7.59225e-23 -1.90847e-23 7.985e-22 3.48377e-21 5.67543e-21 -1.33568e-20 -1.14698e-19 -3.49965e-19 -3.61756e-19 1.79924e-18 1.10673e-17 3.12088e-17 3.68432e-17 -1.06895e-16 -7.56564e-16 -2.36201e-15 -4.21041e-15 -4.52665e-16 2.72012e-14 1.13689e-13 2.86531e-13 4.59516e-13 1.78747e-13 -1.76507e-12 -7.564e-12 -1.962e-11 -3.72772e-11 -4.93859e-11 -2.23547e-11 1.12704e-10 4.63322e-10 1.15122e-09 2.23721e-09 3.57762e-09 4.61463e-09 4.13897e-09 1.07941e-10 -1.03604e-08 -3.06856e-08 -6.41167e-08 -1.12604e-07 -1.75353e-07 -2.47299e-07 -3.17826e-07 -3.70101e-07 -3.81321e-07 -3.24038e-07 -1.68515e-07 1.14118e-07 5.4838e-07 1.15112e-06 1.92886e-06 2.87634e-06 3.97626e-06 5.20051e-06 6.51242e-06 7.86988e-06 9.22872e-06 1.0546e-05 1.17828e-05 1.29058e-05 1.38887e-05 1.47119e-05 1.53622e-05 1.58311e-05 1.61139e-05 1.62084e-05 1.61139e-05 1.58311e-05 1.53622e-05 1.47119e-05 1.38887e-05 1.29058e-05 1.17828e-05 1.0546e-05 9.22872e-06 7.86988e-06 6.51242e-06 5.20051e-06 3.97626e-06 2.87634e-06 1.92886e-06 1.15112e-06 5.4838e-07 1.14118e-07 -1.68515e-07 -3.24038e-07 -3.81321e-07 -3.70101e-07 -3.17826e-07 -2.47299e-07 -1.75353e-07 -1.12604e-07 -6.41167e-08 -3.06856e-08 -1.03604e-08 1.07941e-10 4.13897e-09 4.61463e-09 3.57762e-09 2.23721e-09 1.15122e-09 4.63322e-10 1.12704e-10 -2.23547e-11 -4.93859e-11 -3.72772e-11 -1.962e-11 -7.564e-12 -1.76507e-12 1.78747e-13 4.59516e-13 2.86531e-13 1.13689e-13 2.72012e-14 -4.52665e-16 -4.21041e-15 -2.36201e-15 -7.56564e-16 -1.06895e-16 3.68432e-17 3.12088e-17 1.10673e-17 1.79924e-18 -3.61756e-19 -3.49965e-19 -1.14698e-19 -1.33568e-20 5.67543e-21 3.48377e-21 7.985e-22 -1.90846e-23 -7.59226e-23 -2.4134e-23 -1.67344e-24 1.38907e-24 5.49556e-25 5.64781e-26 -2.39881e-26 -1.04174e-26 -1.09039e-27 4.15886e-28 1.71332e-28 1.4235e-29 -7.04145e-30 -2.33509e-30 -1.00111e-31 1.00546e-31 2.38377e-32 -3.19828e-34 -1.0784e-33 -1.62059e-34 1.55527e-35 7.93232e-36 5.85259e-37 -1.63978e-37 -3.65392e-38 5.83734e-41 8.90322e-40 8.95862e-41 -9.9975e-42 -2.726e-42 -4.80294e-43 -0 0 0 
0 0 -0 -4.51215e-43 -2.56346e-42 -9.8568e-42 9.0128e-41 9.22477e-40 -4.2704e-41 -4.08916e-38 -1.81606e-37 7.49513e-37 9.6625e-36 1.6923e-35 -2.22404e-34 -1.40391e-33 1.18439e-34 3.50681e-32 1.36781e-31 -2.21641e-31 -3.64463e-30 -9.73776e-30 2.9292e-29 2.79664e-28 5.69893e-28 -2.30223e-27 -1.74739e-26 -3.21747e-26 1.29818e-25 9.53495e-25 1.9338e-24 -5.06464e-24 -4.48726e-23 -1.1527e-22 8.19597e-23 1.69034e-21 5.95872e-21 5.68554e-21 -4.10448e-20 -2.31803e-19 -5.54466e-19 -2.63978e-20 5.30822e-18 2.29782e-17 4.94585e-17 5.81207e-18 -4.05655e-16 -1.78228e-15 -4.28926e-15 -4.23012e-15 1.43068e-14 8.95237e-14 2.69769e-13 5.12758e-13 3.88693e-13 -1.46271e-12 -7.82038e-12 -2.21654e-11 -4.43532e-11 -5.94795e-11 -1.84474e-11 1.84316e-10 7.16749e-10 1.76125e-09 3.36248e-09 5.12862e-09 5.78984e-09 2.70986e-09 -8.43097e-09 -3.34516e-08 -7.86157e-08 -1.48429e-07 -2.42264e-07 -3.50168e-07 -4.48622e-07 -4.97369e-07 -4.38475e-07 -1.9863e-07 3.04901e-07 1.15495e-06 2.42292e-06 4.15672e-06 6.37029e-06 9.03663e-06 1.20859e-05 1.54092e-05 1.88675e-05 2.23052e-05 2.5566e-05 2.85082e-05 3.10199e-05 3.30286e-05 3.45072e-05 3.54745e-05 3.59903e-05 3.61456e-05 3.60517e-05 3.58247e-05 3.5573e-05 3.5384e-05 3.53144e-05 3.5384e-05 3.5573e-05 3.58247e-05 3.60517e-05 3.61456e-05 3.59903e-05 3.54745e-05 3.45072e-05 3.30286e-05 3.10199e-05 2.85082e-05 2.5566e-05 2.23052e-05 1.88675e-05 1.54092e-05 1.20859e-05 9.03663e-06 6.37029e-06 4.15672e-06 2.42292e-06 1.15495e-06 3.04901e-07 -1.9863e-07 -4.38475e-07 -4.97369e-07 -4.48622e-07 -3.50168e-07 -2.42264e-07 -1.48429e-07 -7.86157e-08 -3.34516e-08 -8.43097e-09 2.70986e-09 5.78984e-09 5.12862e-09 3.36248e-09 1.76125e-09 7.16749e-10 1.84316e-10 -1.84474e-11 -5.94795e-11 -4.43532e-11 -2.21654e-11 -7.82038e-12 -1.46271e-12 3.88693e-13 5.12758e-13 2.69769e-13 8.95237e-14 1.43068e-14 -4.23012e-15 -4.28926e-15 -1.78228e-15 -4.05655e-16 5.81207e-18 4.94585e-17 2.29782e-17 5.30822e-18 -2.63973e-20 -5.54466e-19 -2.31803e-19 -4.10449e-20 5.68553e-21 5.95871e-21 1.69033e-21 8.19594e-23 -1.1527e-22 -4.48726e-23 -5.06465e-24 1.93379e-24 9.5351e-25 1.29935e-25 -3.18621e-26 -1.73296e-26 -2.28404e-27 5.657e-28 2.77626e-28 2.90786e-29 -9.67072e-30 -3.61953e-30 -2.2006e-31 1.35886e-31 3.48371e-32 1.16817e-34 -1.39505e-33 -2.20986e-34 1.6823e-35 9.60323e-36 7.44826e-37 -1.8053e-37 -4.06465e-38 -4.19694e-41 9.17111e-40 8.9558e-41 -1.01103e-41 -3.26685e-42 -4.6839e-43 0 0 
0 0 -4.14761e-43 -3.04066e-42 -9.63066e-42 8.27904e-41 8.95545e-40 -4.2704e-41 -4.23642e-38 -1.90398e-37 8.63327e-37 1.09654e-35 1.75987e-35 -2.79706e-34 -1.71025e-33 7.28877e-34 4.76511e-32 1.74475e-31 -3.93503e-31 -5.28274e-30 -1.25815e-29 5.21624e-29 4.25865e-28 7.19885e-28 -4.26494e-27 -2.74705e-26 -3.92722e-26 2.55829e-25 1.54673e-24 2.42496e-24 -1.14612e-23 -7.69131e-23 -1.58691e-22 3.18535e-22 3.19441e-21 9.26262e-21 1.63122e-21 -9.59039e-20 -4.17786e-19 -7.47873e-19 1.11837e-18 1.22427e-17 4.14943e-17 6.20023e-17 -1.15916e-16 -1.05192e-15 -3.50499e-15 -6.18025e-15 1.918e-15 5.56781e-14 2.18189e-13 5.09201e-13 6.1576e-13 -7.63908e-13 -6.75944e-12 -2.20771e-11 -4.83549e-11 -6.97981e-11 -2.49472e-11 2.2964e-10 9.34015e-10 2.3513e-09 4.50639e-09 6.64272e-09 6.39229e-09 -1.14176e-09 -2.38901e-08 -7.21083e-08 -1.55517e-07 -2.77565e-07 -4.26765e-07 -5.66141e-07 -6.23105e-07 -4.8305e-07 9.68978e-09 1.04061e-06 2.80241e-06 5.4624e-06 9.12409e-06 1.37891e-05 1.93276e-05 2.54622e-05 3.1773e-05 3.77224e-05 4.27e-05 4.60818e-05 4.72964e-05 4.58885e-05 4.15736e-05 3.42744e-05 2.41405e-05 1.15432e-05 -2.94821e-06 -1.86073e-05 -3.46025e-05 -5.00562e-05 -6.41051e-05 -7.59561e-05 -8.49372e-05 -9.05384e-05 -9.24417e-05 -9.05384e-05 -8.49372e-05 -7.59561e-05 -6.41051e-05 -5.00562e-05 -3.46025e-05 -1.86073e-05 -2.94821e-06 1.15432e-05 2.41405e-05 3.42744e-05 4.15736e-05 4.58885e-05 4.72964e-05 4.60818e-05 4.27e-05 3.77224e-05 3.1773e-05 2.54622e-05 1.93276e-05 1.37891e-05 9.12409e-06 5.4624e-06 2.80241e-06 1.04061e-06 9.68978e-09 -4.8305e-07 -6.23105e-07 -5.66141e-07 -4.26765e-07 -2.77565e-07 -1.55517e-07 -7.21083e-08 -2.38901e-08 -1.14176e-09 6.39229e-09 6.64272e-09 4.50639e-09 2.3513e-09 9.34015e-10 2.2964e-10 -2.49472e-11 -6.97981e-11 -4.83549e-11 -2.20771e-11 -6.75944e-12 -7.63908e-13 6.1576e-13 5.09201e-13 2.18189e-13 5.56781e-14 1.918e-15 -6.18025e-15 -3.50499e-15 -1.05192e-15 -1.15916e-16 6.20023e-17 4.14943e-17 1.22427e-17 1.11838e-18 -7.47874e-19 -4.17786e-19 -9.59039e-20 1.63118e-21 9.26261e-21 3.19441e-21 3.18535e-22 -1.58691e-22 -7.69131e-23 -1.14612e-23 2.42512e-24 1.54703e-24 2.54929e-25 -3.88738e-26 -2.72551e-26 -4.23261e-27 7.14787e-28 4.22839e-28 5.179e-29 -1.24975e-29 -5.24711e-30 -3.90771e-31 1.73355e-31 4.73422e-32 7.23138e-34 -1.69961e-33 -2.77947e-34 1.74965e-35 1.08989e-35 8.57994e-37 -1.8928e-37 -4.21125e-38 -4.20153e-41 8.90116e-40 8.27944e-41 6.69946e-42 -1.71572e-42 0 0 
0 0 -1.56481e-42 5.19729e-42 7.0208e-41 8.19041e-40 5.826e-41 -4.08916e-38 -1.90398e-37 9.04538e-37 1.16782e-35 1.78626e-35 -3.25423e-34 -1.96604e-33 1.40375e-33 6.03527e-32 2.10757e-31 -6.06573e-31 -7.17629e-30 -1.53468e-29 8.35384e-29 6.10715e-28 8.41524e-28 -7.17915e-27 -4.08724e-26 -4.28551e-26 4.53229e-25 2.36224e-24 2.67196e-24 -2.22105e-23 -1.22803e-22 -1.95851e-22 7.72913e-22 5.51153e-21 1.31002e-20 -1.05082e-20 -1.91617e-19 -6.81465e-19 -7.99229e-19 3.76536e-18 2.41882e-17 6.59005e-17 4.80147e-17 -4.15753e-16 -2.22826e-15 -5.87742e-15 -6.04256e-15 2.28355e-14 1.44564e-13 4.32822e-13 7.4766e-13 7.31779e-14 -4.63338e-12 -1.9024e-11 -4.7622e-11 -7.82195e-11 -4.58526e-11 2.21332e-10 1.03711e-09 2.77186e-09 5.47334e-09 8.0015e-09 6.62478e-09 -6.58441e-09 -4.45669e-08 -1.23585e-07 -2.56871e-07 -4.41846e-07 -6.40733e-07 -7.57198e-07 -6.15133e-07 5.137e-08 1.5867e-06 4.37285e-06 8.75622e-06 1.49468e-05 2.29035e-05 3.22267e-05 4.20797e-05 5.11638e-05 5.77589e-05 5.98337e-05 5.52185e-05 4.18173e-05 1.78328e-05 -1.80228e-05 -6.63636e-05 -0.00012703 -0.000199061 -0.000280746 -0.000369733 -0.000463182 -0.000557961 -0.00065082 -0.000738571 -0.000818243 -0.000887196 -0.000943188 -0.00098446 -0.00100973 -0.00101824 -0.00100973 -0.00098446 -0.000943188 -0.000887196 -0.000818243 -0.000738571 -0.00065082 -0.000557961 -0.000463182 -0.000369733 -0.000280746 -0.000199061 -0.00012703 -6.63636e-05 -1.80228e-05 1.78328e-05 4.18173e-05 5.52185e-05 5.98337e-05 5.77589e-05 5.11638e-05 4.20797e-05 3.22267e-05 2.29035e-05 1.49468e-05 8.75622e-06 4.37285e-06 1.5867e-06 5.137e-08 -6.15133e-07 -7.57198e-07 -6.40733e-07 -4.41846e-07 -2.56871e-07 -1.23585e-07 -4.45669e-08 -6.58441e-09 6.62478e-09 8.0015e-09 5.47334e-09 2.77186e-09 1.03711e-09 2.21332e-10 -4.58526e-11 -7.82195e-11 -4.7622e-11 -1.9024e-11 -4.63338e-12 7.31779e-14 7.4766e-13 4.32822e-13 1.44564e-13 2.28355e-14 -6.04256e-15 -5.87742e-15 -2.22826e-15 -4.15753e-16 4.80146e-17 6.59004e-17 2.41881e-17 3.76536e-18 -7.9923e-19 -6.81464e-19 -1.91617e-19 -1.05082e-20 1.31002e-20 5.51153e-21 7.72915e-22 -1.95851e-22 -1.22803e-22 -2.22102e-23 2.66914e-24 2.34707e-24 4.49888e-25 -4.25292e-26 -4.05709e-26 -7.12663e-27 8.35805e-28 6.06479e-28 8.29542e-29 -1.52472e-29 -7.12879e-30 -6.0245e-31 2.09428e-31 5.99671e-32 1.39362e-33 -1.95395e-33 -3.23401e-34 1.77604e-35 1.1608e-35 8.99006e-37 -1.89288e-37 -4.06509e-38 5.85732e-41 8.33205e-40 1.81002e-40 9.23625e-42 0 0 
0 0 7.1198e-42 1.53504e-40 7.20658e-40 2.23475e-40 -3.67616e-38 -1.81606e-37 8.63327e-37 1.16782e-35 1.79213e-35 -3.50867e-34 -2.13607e-33 1.98838e-33 7.13693e-32 2.4189e-31 -8.3559e-31 -9.15147e-30 -1.77612e-29 1.22158e-28 8.26087e-28 9.06822e-28 -1.11295e-26 -5.76343e-26 -3.99661e-26 7.38722e-25 3.41623e-24 2.4279e-24 -3.8666e-23 -1.84067e-22 -2.10752e-22 1.53868e-21 8.80177e-21 1.67808e-20 -3.60621e-20 -3.42203e-19 -1.01388e-18 -4.86313e-19 8.8055e-18 4.24785e-17 9.17189e-17 -2.84354e-17 -1.00909e-15 -4.07729e-15 -8.34667e-15 1.13199e-16 7.14216e-14 3.02412e-13 7.14825e-13 7.18158e-13 -2.14808e-12 -1.36828e-11 -4.1339e-11 -8.05464e-11 -7.53351e-11 1.53034e-10 9.74746e-10 2.8885e-09 6.0639e-09 9.14184e-09 7.10128e-09 -1.13694e-08 -6.53318e-08 -1.78638e-07 -3.68112e-07 -6.18864e-07 -8.45947e-07 -8.48019e-07 -2.67353e-07 1.42148e-06 4.86823e-06 1.07273e-05 1.94541e-05 3.10322e-05 4.46698e-05 5.85261e-05 6.95377e-05 7.34058e-05 6.47871e-05 3.76898e-05 -1.39603e-05 -9.56495e-05 -0.000211606 -0.00036422 -0.000553647 -0.000777641 -0.00103166 -0.00130919 -0.00160232 -0.00190232 -0.00220033 -0.002488 -0.00275799 -0.00300425 -0.00322222 -0.00340879 -0.00356212 -0.00368135 -0.00376631 -0.00381714 -0.00383404 -0.00381714 -0.00376631 -0.00368135 -0.00356212 -0.00340879 -0.00322222 -0.00300425 -0.00275799 -0.002488 -0.00220033 -0.00190232 -0.00160232 -0.00130919 -0.00103166 -0.000777641 -0.000553647 -0.00036422 -0.000211606 -9.56495e-05 -1.39603e-05 3.76898e-05 6.47871e-05 7.34058e-05 6.95377e-05 5.85261e-05 4.46698e-05 3.10322e-05 1.94541e-05 1.07273e-05 4.86823e-06 1.42148e-06 -2.67353e-07 -8.48019e-07 -8.45947e-07 -6.18864e-07 -3.68112e-07 -1.78638e-07 -6.53318e-08 -1.13694e-08 7.10128e-09 9.14184e-09 6.0639e-09 2.8885e-09 9.74746e-10 1.53034e-10 -7.53351e-11 -8.05464e-11 -4.1339e-11 -1.36828e-11 -2.14808e-12 7.18158e-13 7.14825e-13 3.02412e-13 7.14216e-14 1.13199e-16 -8.34667e-15 -4.07729e-15 -1.00909e-15 -2.84355e-17 9.17188e-17 4.24785e-17 8.8055e-18 -4.86309e-19 -1.01387e-18 -3.42202e-19 -3.6062e-20 1.67808e-20 8.80177e-21 1.53869e-21 -2.10751e-22 -1.84071e-22 -3.86887e-23 2.38864e-24 3.3879e-24 7.3296e-25 -3.97061e-26 -5.72225e-26 -1.10498e-26 9.00965e-28 8.20482e-28 1.2132e-28 -1.76488e-29 -9.09188e-30 -8.3001e-31 2.40388e-31 7.09192e-32 1.97457e-33 -2.12308e-33 -3.4871e-34 1.78196e-35 1.16086e-35 8.58097e-37 -1.80554e-37 -3.65328e-38 2.92175e-40 5.42908e-40 1.16626e-40 0 0 
0 0 9.28674e-41 4.85945e-40 4.5623e-40 -3.0738e-38 -1.64966e-37 7.49513e-37 1.09654e-35 1.78626e-35 -3.50867e-34 -2.19569e-33 2.32878e-33 7.88879e-32 2.64604e-31 -1.04317e-30 -1.09696e-29 -1.96347e-29 1.64474e-28 1.05543e-27 8.98232e-28 -1.6009e-26 -7.71107e-26 -2.78378e-26 1.12142e-24 4.70204e-24 1.43423e-24 -6.19009e-23 -2.60638e-22 -1.83462e-22 2.70476e-21 1.3135e-20 1.92075e-20 -8.10415e-20 -5.58756e-19 -1.38042e-18 5.002e-19 1.71997e-17 6.75827e-17 1.09199e-16 -2.1829e-16 -2.01942e-15 -6.59913e-15 -9.56225e-15 1.85742e-14 1.63092e-13 5.38874e-13 9.6402e-13 -1.20732e-13 -7.62892e-12 -3.05564e-11 -7.31853e-11 -9.94784e-11 4.74833e-11 7.53161e-10 2.63464e-09 6.1012e-09 9.92757e-09 8.37103e-09 -1.2815e-08 -7.9142e-08 -2.23586e-07 -4.6806e-07 -7.81786e-07 -1.01362e-06 -8.08394e-07 4.6342e-07 3.71313e-06 1.00178e-05 2.03276e-05 3.4976e-05 5.30275e-05 7.15665e-05 8.50847e-05 8.51537e-05 6.05588e-05 -2.00999e-06 -0.000116706 -0.000296836 -0.000552956 -0.000891056 -0.00131111 -0.00180633 -0.0023631 -0.00296192 -0.00357894 -0.0041881 -0.00476359 -0.00528222 -0.00572539 -0.00608073 -0.00634304 -0.00651424 -0.0066029 -0.00662313 -0.0065928 -0.00653167 -0.00645938 -0.00639356 -0.00634812 -0.00633199 -0.00634812 -0.00639356 -0.00645938 -0.00653167 -0.0065928 -0.00662313 -0.0066029 -0.00651424 -0.00634304 -0.00608073 -0.00572539 -0.00528222 -0.00476359 -0.0041881 -0.00357894 -0.00296192 -0.0023631 -0.00180633 -0.00131111 -0.000891056 -0.000552956 -0.000296836 -0.000116706 -2.00999e-06 6.05588e-05 8.51537e-05 8.50847e-05 7.15665e-05 5.30275e-05 3.4976e-05 2.03276e-05 1.00178e-05 3.71313e-06 4.6342e-07 -8.08394e-07 -1.01362e-06 -7.81786e-07 -4.6806e-07 -2.23586e-07 -7.9142e-08 -1.2815e-08 8.37103e-09 9.92757e-09 6.1012e-09 2.63464e-09 7.53161e-10 4.74833e-11 -9.94784e-11 -7.31853e-11 -3.05564e-11 -7.62892e-12 -1.20732e-13 9.6402e-13 5.38874e-13 1.63092e-13 1.85742e-14 -9.56225e-15 -6.59913e-15 -2.01942e-15 -2.1829e-16 1.09199e-16 6.75827e-17 1.71997e-17 5.00206e-19 -1.38042e-18 -5.58756e-19 -8.10416e-20 1.92075e-20 1.3135e-20 2.70475e-21 -1.8349e-22 -2.60653e-22 -6.16171e-23 1.40994e-24 4.66612e-24 1.11308e-24 -2.76827e-26 -7.65728e-26 -1.58967e-26 8.92765e-28 1.04841e-27 1.63365e-28 -1.95133e-29 -1.08992e-29 -1.03631e-30 2.62983e-31 7.8396e-32 2.31292e-33 -2.18247e-33 -3.4873e-34 1.77618e-35 1.09006e-35 7.45021e-37 -1.63963e-37 -3.09918e-38 -4.72055e-39 1.56175e-40 0 0 
0 0 1.45031e-40 -3.5341e-39 -2.41799e-38 -1.42269e-37 5.88994e-37 9.6625e-36 1.75987e-35 -3.25423e-34 -2.13607e-33 2.32878e-33 8.15604e-32 2.7656e-31 -1.18888e-30 -1.23713e-29 -2.09034e-29 2.04907e-28 1.2752e-27 8.18681e-28 -2.14643e-26 -9.80126e-26 -5.24086e-27 1.5949e-24 6.17765e-24 -5.13986e-25 -9.2388e-23 -3.50591e-22 -9.39783e-23 4.33426e-21 1.84531e-20 1.90043e-20 -1.5102e-19 -8.45883e-19 -1.71858e-18 2.52077e-18 2.97687e-17 9.85008e-17 1.02916e-16 -5.81836e-16 -3.54357e-15 -9.53882e-15 -7.21044e-15 5.74456e-14 3.11342e-13 8.34197e-13 9.56412e-13 -2.61595e-12 -1.82341e-11 -5.64848e-11 -1.05072e-10 -5.34761e-11 4.42092e-10 2.05529e-09 5.49142e-09 1.00729e-08 1.0339e-08 -9.4198e-09 -8.01158e-08 -2.44835e-07 -5.3459e-07 -9.07082e-07 -1.13978e-06 -6.90934e-07 1.41928e-06 6.6106e-06 1.6499e-05 3.22863e-05 5.3728e-05 7.77518e-05 9.69613e-05 9.84101e-05 6.31211e-05 -3.32319e-05 -0.000218205 -0.000519053 -0.000958143 -0.00154795 -0.00228652 -0.00315415 -0.00411217 -0.00510394 -0.00605866 -0.00689675 -0.00753723 -0.00790525 -0.0079395 -0.00759841 -0.00686446 -0.0057466 -0.00428018 -0.00252493 -0.000560785 0.00151717 0.003605 0.00559624 0.00738828 0.00888857 0.0100194 0.0107223 0.0109606 0.0107223 0.0100194 0.00888857 0.00738828 0.00559624 0.003605 0.00151717 -0.000560785 -0.00252493 -0.00428018 -0.0057466 -0.00686446 -0.00759841 -0.0079395 -0.00790525 -0.00753723 -0.00689675 -0.00605866 -0.00510394 -0.00411217 -0.00315415 -0.00228652 -0.00154795 -0.000958143 -0.000519053 -0.000218205 -3.32319e-05 6.31211e-05 9.84101e-05 9.69613e-05 7.77518e-05 5.3728e-05 3.22863e-05 1.6499e-05 6.6106e-06 1.41928e-06 -6.90934e-07 -1.13978e-06 -9.07082e-07 -5.3459e-07 -2.44835e-07 -8.01158e-08 -9.4198e-09 1.0339e-08 1.00729e-08 5.49142e-09 2.05529e-09 4.42092e-10 -5.34761e-11 -1.05072e-10 -5.64848e-11 -1.82341e-11 -2.61595e-12 9.56412e-13 8.34197e-13 3.11342e-13 5.74457e-14 -7.21044e-15 -9.53882e-15 -3.54357e-15 -5.81835e-16 1.02917e-16 9.85009e-17 2.97687e-17 2.52077e-18 -1.71859e-18 -8.45885e-19 -1.51021e-19 1.90043e-20 1.8453e-20 4.33426e-21 -9.34002e-23 -3.48228e-22 -9.16893e-23 -5.06588e-25 6.13325e-24 1.5834e-24 -5.26827e-27 -9.73442e-26 -2.13164e-26 8.14078e-28 1.26685e-27 2.03545e-28 -2.07767e-29 -1.2293e-29 -1.18117e-30 2.74884e-31 8.1057e-32 2.31313e-33 -2.12331e-33 -3.23458e-34 1.74993e-35 9.60585e-36 5.85197e-37 -1.45981e-37 -4.0924e-38 -3.67175e-39 0 0 
0 0 -2.61975e-39 -3.21949e-38 -1.19591e-37 4.14539e-37 7.98188e-36 1.6923e-35 -2.79706e-34 -1.96604e-33 1.98838e-33 7.88879e-32 2.7656e-31 -1.24139e-30 -1.31358e-29 -2.16098e-29 2.36911e-28 1.45849e-27 6.9518e-28 -2.69012e-26 -1.18507e-25 2.64227e-26 2.13182e-24 7.75534e-24 -3.50377e-24 -1.29737e-22 -4.50297e-22 7.24085e-23 6.44321e-21 2.45582e-20 1.47877e-20 -2.49726e-19 -1.19899e-18 -1.94452e-18 5.91904e-18 4.6948e-17 1.3243e-16 5.32078e-17 -1.17718e-15 -5.60999e-15 -1.23111e-14 1.87434e-15 1.25165e-13 5.21231e-13 1.12201e-12 3.26685e-13 -7.82594e-12 -3.54515e-11 -8.88768e-11 -1.12751e-10 1.44905e-10 1.31013e-09 4.3113e-09 9.27361e-09 1.21112e-08 -2.05388e-09 -6.66837e-08 -2.34171e-07 -5.50209e-07 -9.75963e-07 -1.23733e-06 -6.12804e-07 2.26236e-06 9.40841e-06 2.30853e-05 4.46944e-05 7.2857e-05 0.000100786 0.000113432 8.52446e-05 -2.03601e-05 -0.000248814 -0.000648845 -0.0012636 -0.00211937 -0.00321351 -0.00450385 -0.00590172 -0.00727053 -0.00843067 -0.00917097 -0.00926525 -0.00849245 -0.00665753 -0.00361058 0.000737322 0.00640399 0.0133322 0.0213914 0.0303849 0.040061 0.0501283 0.0602701 0.070161 0.0794818 0.087932 0.0952408 0.101177 0.105554 0.108235 0.109138 0.108235 0.105554 0.101177 0.0952408 0.087932 0.0794818 0.070161 0.0602701 0.0501283 0.040061 0.0303849 0.0213914 0.0133322 0.00640399 0.000737322 -0.00361058 -0.00665753 -0.00849245 -0.00926525 -0.00917097 -0.00843067 -0.00727053 -0.00590172 -0.00450385 -0.00321351 -0.00211937 -0.0012636 -0.000648845 -0.000248814 -2.03601e-05 8.52446e-05 0.000113432 0.000100786 7.2857e-05 4.46944e-05 2.30853e-05 9.40841e-06 2.26236e-06 -6.12804e-07 -1.23733e-06 -9.75963e-07 -5.50209e-07 -2.34171e-07 -6.66837e-08 -2.05388e-09 1.21112e-08 9.27361e-09 4.3113e-09 1.31013e-09 1.44905e-10 -1.12751e-10 -8.88768e-11 -3.54515e-11 -7.82594e-12 3.26685e-13 1.12201e-12 5.21231e-13 1.25165e-13 1.87432e-15 -1.23112e-14 -5.60999e-15 -1.17718e-15 5.32083e-17 1.3243e-16 4.6948e-17 5.91904e-18 -1.94453e-18 -1.19899e-18 -2.49726e-19 1.47876e-20 2.4559e-20 6.44615e-21 7.53693e-23 -4.46594e-22 -1.28743e-22 -3.47077e-24 7.70119e-24 2.11676e-24 2.61501e-26 -1.17715e-25 -2.6719e-26 6.91665e-28 1.44909e-27 2.35358e-28 -2.14809e-29 -1.30535e-29 -1.23342e-30 2.749e-31 7.84057e-32 1.97509e-33 -1.95438e-33 -2.78031e-34 1.68271e-35 7.93227e-36 4.0684e-37 -1.78508e-38 -2.1568e-38 0 0 