<?xml version="1.0"?>
<VTKFile type="ImageData" version="0.1" byte_order="LittleEndian">
<ImageData WholeExtent="0 199 0 199 0 0" Origin="0 0 0" Spacing="15 15 0">
<Piece Extent="0 199 0 199 0 0">
<PointData Scalars="Amplitude">
<DataArray type="Float32" Name="Amplitude" format="ascii">
0 0 0 0 0 0 0 0 0 0 0 0 0 0 0 0 0 0 0 0 0 0 0 0 0 0 0 0 0 0 0 0 0 0 0 0 0 0 0 0 0 0 0 0 0 0 0 0 0 0 0 0 0 0 0 0 0 0 0 0 0 0 0 0 0 0 0 0 0 0 0 0 0 0 0 0 0 0 0 0 0 0 0 0 0 0 0 0 0 0 0 0 0 0 0 0 0 0 0 0 0 0 0 0 0 0 0 0 0 0 0 0 0 0 0 0 0 0 0 0 0 0 0 0 0 0 0 0 0 0 0 0 0 0 0 0 0 0 0 0 0 0 0 0 0 0 0 0 0 0 0 0 0 0 0 0 0 0 0 0 0 0 0 0 0 0 0 0 0 0 0 0 0 0 0 0 0 0 0 0 0 0 0 0 0 0 0 0 0 0 0 0 0 0 0 0 0 0 0 0 
0 0 0 0 0 0 0 0 0 0 0 0 0 0 0 0 0 0 0 0 0 0 0 0 0 0 0 0 0 0 0 0 0 0 0 0 0 0 0 0 0 0 0 0 0 0 0 0 0 0 0 0 0 0 0 0 0 0 0 0 0 0 0 0 0 0 0 0 0 0 0 0 0 0 0 0 0 0 0 0 0 0 0 0 0 0 0 0 0 0 0 0 0 0 0 0 0 0 0 0 0 0 0 0 0 0 0 0 0 0 0 0 0 0 0 0 0 0 0 0 0 0 0 0 0 0 0 0 0 0 0 0 0 0 0 0 0 0 0 0 0 0 0 0 0 0 0 0 0 0 0 0 0 0 0 0 0 0 0 0 0 0 0 0 0 0 0 0 0 0 0 0 0 0 0 0 0 0 0 0 0 0 0 0 0 0 0 0 0 0 0 0 0 0 0 0 0 0 0 0 
0 0 8.39488e-10 -4.59051e-09 -2.36581e-08 -4.68808e-08 -6.3533e-09 -3.56675e-09 -2.912e-07 -6.24502e-07 -3.94742e-07 -9.47499e-08 -1.19084e-06 -3.48245e-06 -4.33749e-06 -2.688e-06 -2.34274e-06 -7.07082e-06 -1.37013e-05 -1.5735e-05 -1.26187e-05 -1.09445e-05 -1.61608e-05 -2.54311e-05 -3.09887e-05 -2.93239e-05 -2.45388e-05 -2.34825e-05 -2.88996e-05 -3.7074e-05 -4.17745e-05 -3.99732e-05 -3.41045e-05 -2.96266e-05 -3.0346e-05 -3.5548e-05 -4.08799e-05 -4.17082e-05 -3.63163e-05 -2.67372e-05 -1.70328e-05 -1.05194e-05 -7.76169e-06 -6.47299e-06 -3.05254e-06 5.33251e-06 1.92909e-05 3.70737e-05 5.55403e-05 7.15886e-05 8.33529e-05 9.06618e-05 9.47087e-05 9.72325e-05 9.962e-05 0.000102303 0.000104633 0.000105171 0.000102244 9.45457e-05 8.15317e-05 6.35954e-05 4.19676e-05 1.84447e-05 -4.98562e-06 -2.64893e-05 -4.46651e-05 -5.86077e-05 -6.79183e-05 -7.2668e-05 -7.33267e-05 -7.05449e-05 -6.49407e-05 -5.70268e-05 -4.73424e-05 -3.66839e-05 -2.61742e-05 -1.70535e-05 -1.03014e-05 -6.32951e-06 -4.91899e-06 -5.40608e-06 -6.98484e-06 -8.95909e-06 -1.08501e-05 -1.2394e-05 -1.35006e-05 -1.41905e-05 -1.45268e-05 -1.45777e-05 -1.43982e-05 -1.40377e-05 -1.35524e-05 -1.30121e-05 -1.24706e-05 -1.19601e-05 -1.15012e-05 -1.1117e-05 -1.08294e-05 -1.06575e-05 -1.05978e-05 -1.06541e-05 -1.08249e-05 -1.11138e-05 -1.15007e-05 -1.19598e-05 -1.2459e-05 -1.29704e-05 -1.34716e-05 -1.39606e-05 -1.451e-05 -1.53493e-05 -1.68206e-05 -1.91346e-05 -2.19283e-05 -2.38642e-05 -2.27439e-05 -1.65853e-05 -5.40144e-06 7.5284e-06 1.643e-05 1.61927e-05 5.93767e-06 -1.01755e-05 -2.61364e-05 -3.86041e-05 -4.83993e-05 -5.7728e-05 -6.66872e-05 -7.31496e-05 -7.54778e-05 -7.39475e-05 -6.91435e-05 -6.03211e-05 -4.64248e-05 -2.78906e-05 -6.39261e-06 1.66352e-05 3.99842e-05 6.17259e-05 7.95766e-05 9.23051e-05 9.99442e-05 0.000103017 0.000102492 0.000100109 9.75707e-05 9.54168e-05 9.30084e-05 8.90815e-05 8.2037e-05 7.05369e-05 5.46437e-05 3.63458e-05 1.88176e-05 5.09234e-06 -3.14116e-06 -6.42151e-06 -7.51951e-06 -1.00711e-05 -1.64516e-05 -2.6123e-05 -3.57051e-05 -4.10758e-05 -4.02086e-05 -3.48553e-05 -2.96486e-05 -2.89069e-05 -3.33191e-05 -3.91004e-05 -4.08378e-05 -3.61169e-05 -2.79365e-05 -2.24611e-05 -2.35931e-05 -2.84181e-05 -3.01438e-05 -2.47178e-05 -1.56096e-05 -1.0501e-05 -1.21996e-05 -1.53227e-05 -1.33534e-05 -6.83636e-06 -2.19503e-06 -2.56463e-06 -4.21978e-06 -3.39429e-06 -1.14333e-06 -7.05483e-08 -3.76309e-07 -6.10502e-07 -2.83634e-07 8.14316e-10 -5.44312e-09 -5.16415e-08 -2.29813e-08 -3.34282e-09 0 0 
0 0 -4.59051e-09 -2.69934e-08 -5.80819e-08 -1.06957e-08 -4.31883e-08 -4.5083e-07 -7.73959e-07 -3.31171e-07 -4.55801e-07 -2.91919e-06 -5.67565e-06 -5.11068e-06 -3.09564e-06 -6.97183e-06 -1.81823e-05 -2.59392e-05 -2.26449e-05 -1.79156e-05 -2.56331e-05 -4.46634e-05 -5.94654e-05 -5.87846e-05 -4.96954e-05 -4.83886e-05 -6.14686e-05 -8.03116e-05 -9.05049e-05 -8.60526e-05 -7.45453e-05 -6.90207e-05 -7.63297e-05 -9.18639e-05 -0.000103942 -0.000103519 -9.05975e-05 -7.32946e-05 -6.14089e-05 -5.93969e-05 -6.38228e-05 -6.60243e-05 -5.77132e-05 -3.57352e-05 -3.24396e-06 3.25797e-05 6.46418e-05 8.94316e-05 0.00010801 0.000124784 0.000144778 0.000170948 0.000202754 0.000236247 0.000265518 0.000284701 0.000289725 0.000279235 0.000254609 0.000219235 0.000177402 0.000133243 8.99727e-05 4.95849e-05 1.291e-05 -2.01157e-05 -5.00281e-05 -7.73357e-05 -0.000102156 -0.000124109 -0.000142458 -0.000156316 -0.000164684 -0.000166426 -0.000160646 -0.000147351 -0.000127948 -0.000105165 -8.22202e-05 -6.17602e-05 -4.51703e-05 -3.25028e-05 -2.29436e-05 -1.54225e-05 -9.09113e-06 -3.46279e-06 1.63212e-06 6.17439e-06 1.01054e-05 1.34029e-05 1.60993e-05 1.82381e-05 1.98726e-05 2.10658e-05 2.19119e-05 2.25019e-05 2.29081e-05 2.31841e-05 2.33578e-05 2.3446e-05 2.34765e-05 2.34472e-05 2.33606e-05 2.31854e-05 2.29072e-05 2.25165e-05 2.1982e-05 2.12282e-05 2.009e-05 1.82319e-05 1.50375e-05 9.56838e-06 9.34518e-07 -1.0814e-05 -2.35206e-05 -3.25518e-05 -3.24494e-05 -2.07846e-05 -2.03795e-06 1.22467e-05 9.21812e-06 -1.63943e-05 -5.75704e-05 -9.9644e-05 -0.000131086 -0.000150313 -0.000162245 -0.000169749 -0.000170499 -0.00016195 -0.000146077 -0.000127002 -0.000106012 -8.1634e-05 -5.35829e-05 -2.33789e-05 8.84609e-06 4.49301e-05 8.55065e-05 0.000128724 0.000172248 0.000213797 0.000249446 0.000274129 0.000284433 0.000279634 0.000260961 0.000231961 0.000198726 0.000167526 0.000141984 0.000122371 0.000106051 8.81246e-05 6.38752e-05 3.21606e-05 -3.25667e-06 -3.52284e-05 -5.67412e-05 -6.47725e-05 -6.24359e-05 -5.78931e-05 -5.97852e-05 -7.16432e-05 -8.90082e-05 -0.00010194 -0.000102208 -8.9872e-05 -7.41443e-05 -6.68172e-05 -7.24195e-05 -8.39402e-05 -8.82417e-05 -7.75783e-05 -5.92273e-05 -4.65172e-05 -4.79302e-05 -5.70338e-05 -5.78467e-05 -4.33563e-05 -2.46682e-05 -1.7147e-05 -2.19241e-05 -2.52749e-05 -1.76856e-05 -6.66961e-06 -2.89667e-06 -4.93735e-06 -5.5304e-06 -2.83036e-06 -4.16188e-07 -3.07389e-07 -7.51173e-07 -4.39027e-07 -4.68012e-08 -8.58126e-09 -3.34872e-08 -2.44554e-08 0 0 
0 0 -2.36581e-08 -5.80819e-08 -5.29041e-08 7.13062e-08 -3.55204e-07 -1.24067e-06 -6.4553e-07 6.08423e-07 -2.47678e-06 -8.56677e-06 -8.25561e-06 -1.13271e-06 -2.64948e-06 -2.27591e-05 -4.19666e-05 -3.38665e-05 -1.30991e-05 -1.98007e-05 -5.98382e-05 -9.54379e-05 -9.21136e-05 -6.20259e-05 -4.99046e-05 -7.80932e-05 -0.000124328 -0.000149191 -0.000134962 -0.000101644 -8.56006e-05 -0.000105166 -0.00014695 -0.000179003 -0.000177871 -0.000146328 -0.000108472 -9.05047e-05 -0.000101999 -0.000130518 -0.000151622 -0.000144874 -0.000105771 -4.66668e-05 1.20422e-05 5.3726e-05 7.40144e-05 8.15555e-05 9.2085e-05 0.000120171 0.000172241 0.000244146 0.000323404 0.000394212 0.00044313 0.000463003 0.000454102 0.000422673 0.00037799 0.000328968 0.000281893 0.000239282 0.000200174 0.000161427 0.000119352 7.09835e-05 1.52118e-05 -4.69892e-05 -0.000112546 -0.000176894 -0.000234776 -0.000281581 -0.00031383 -0.000328946 -0.000325267 -0.000302585 -0.000263057 -0.00021171 -0.000155561 -0.000101634 -5.50738e-05 -1.8201e-05 9.15757e-06 2.86929e-05 4.2377e-05 5.17804e-05 5.79584e-05 6.16016e-05 6.31714e-05 6.30981e-05 6.17554e-05 5.94651e-05 5.6524e-05 5.32859e-05 5.00475e-05 4.70361e-05 4.43996e-05 4.22606e-05 4.06812e-05 3.97429e-05 3.94189e-05 3.9731e-05 4.06682e-05 4.225e-05 4.44022e-05 4.71028e-05 5.02538e-05 5.36548e-05 5.68325e-05 5.88077e-05 5.79005e-05 5.21422e-05 4.03946e-05 2.43112e-05 9.90462e-06 6.42249e-06 2.07293e-05 4.95429e-05 7.56244e-05 7.43753e-05 2.97872e-05 -5.18551e-05 -0.00014441 -0.00022077 -0.000271477 -0.000304429 -0.000327807 -0.000337675 -0.000324665 -0.000288332 -0.000238234 -0.000181974 -0.000119956 -5.3333e-05 1.0665e-05 6.53899e-05 0.000111797 0.000154027 0.000193547 0.000231677 0.000273087 0.000320638 0.000370306 0.000414473 0.000445738 0.000455649 0.000436482 0.000387634 0.000317576 0.000239631 0.000168398 0.000116745 8.97203e-05 8.03206e-05 7.32866e-05 5.3439e-05 1.26328e-05 -4.51807e-05 -0.000103792 -0.000142747 -0.000149341 -0.000127955 -9.93e-05 -8.79908e-05 -0.000106151 -0.000143811 -0.000174811 -0.000175475 -0.000143386 -0.000101896 -8.2514e-05 -9.83425e-05 -0.000131154 -0.000144928 -0.000120551 -7.51786e-05 -4.75091e-05 -5.9642e-05 -8.95694e-05 -9.30678e-05 -5.80801e-05 -1.86836e-05 -1.22205e-05 -3.28949e-05 -4.10251e-05 -2.21413e-05 -2.3516e-06 -9.26276e-07 -8.02573e-06 -8.37848e-06 -2.38959e-06 6.44039e-07 -6.09627e-07 -1.22385e-06 -3.58497e-07 1.03865e-07 -8.66423e-09 -5.37863e-08 0 0 
0 0 -4.68808e-08 -1.06957e-08 7.13062e-08 -4.38059e-07 -1.23265e-06 -2.28581e-07 5.80965e-07 -4.75906e-06 -1.02562e-05 -3.98365e-06 2.50848e-06 -1.29676e-05 -4.19838e-05 -4.63266e-05 -1.41084e-05 -1.95907e-06 -5.68494e-05 -0.000125087 -0.00012739 -7.09683e-05 -3.80613e-05 -8.77993e-05 -0.000180199 -0.000224831 -0.000188575 -0.000121141 -9.9807e-05 -0.000155296 -0.000243495 -0.000292915 -0.000268751 -0.000197657 -0.000142824 -0.000150075 -0.000214427 -0.000288592 -0.000318423 -0.000280832 -0.00019555 -0.000108425 -6.09995e-05 -6.55669e-05 -0.000101099 -0.000127299 -0.000107312 -2.6825e-05 0.000101976 0.000248136 0.000377219 0.00046597 0.000509292 0.000519332 0.000517599 0.000524885 0.00055295 0.000600907 0.000656464 0.000700686 0.000714686 0.000684771 0.000605873 0.000482108 0.000325144 0.000151285 -2.18301e-05 -0.000178561 -0.000307397 -0.000401693 -0.000459279 -0.000481988 -0.000474721 -0.000444164 -0.000396328 -0.000335346 -0.000264472 -0.000188267 -0.000113946 -5.02776e-05 -4.6671e-06 1.93055e-05 2.27789e-05 1.05333e-05 -1.12032e-05 -3.69013e-05 -6.26441e-05 -8.60444e-05 -0.00010607 -0.00012238 -0.000135258 -0.000145049 -0.000152213 -0.00015712 -0.000160331 -0.000162273 -0.000163308 -0.000163781 -0.000163948 -0.000163884 -0.000163884 -0.000163932 -0.000164014 -0.000163812 -0.000163217 -0.000161956 -0.000159738 -0.00015651 -0.000152849 -0.000150343 -0.000151594 -0.000158067 -0.000166891 -0.000167556 -0.000143454 -8.05928e-05 1.78111e-05 0.000122408 0.000186421 0.000173525 8.59461e-05 -3.45784e-05 -0.000139551 -0.000211833 -0.000270282 -0.000337452 -0.000409571 -0.000463721 -0.000487344 -0.000486718 -0.00046602 -0.000413891 -0.000318537 -0.000185552 -2.99314e-05 0.000139052 0.000312693 0.000471649 0.000594101 0.000670376 0.00070089 0.0006884 0.000643246 0.00058699 0.000540838 0.000514232 0.000506904 0.000509817 0.000502177 0.000459942 0.000371719 0.000244559 0.000100263 -2.8034e-05 -0.00010781 -0.000126067 -9.85883e-05 -6.26799e-05 -5.77994e-05 -0.000104588 -0.000191183 -0.000276667 -0.000315003 -0.000285374 -0.000210375 -0.000144919 -0.000137327 -0.000192673 -0.000264367 -0.000288347 -0.000238101 -0.000149238 -9.38529e-05 -0.000115737 -0.000182911 -0.000219162 -0.000175488 -8.4536e-05 -3.56123e-05 -6.83077e-05 -0.000124279 -0.000122249 -5.50337e-05 -9.76584e-07 -1.31863e-05 -4.52172e-05 -4.10621e-05 -1.24798e-05 2.72148e-06 -3.78696e-06 -1.00368e-05 -4.6265e-06 6.10017e-07 -2.20317e-07 -1.17816e-06 -3.94823e-07 -4.85546e-08 4.89181e-09 0 0 
0 0 -6.3533e-09 -4.31883e-08 -3.55204e-07 -1.23265e-06 -1.99853e-07 6.76149e-07 -6.05569e-06 -1.13199e-05 -9.49925e-08 3.00671e-06 -2.75146e-05 -5.50586e-05 -3.59834e-05 5.14835e-06 -1.71497e-05 -0.00012399 -0.000182838 -0.00010922 -2.19555e-05 -6.07811e-05 -0.000210884 -0.000322573 -0.000280786 -0.000155211 -0.000103864 -0.000193452 -0.000352251 -0.000441386 -0.000391157 -0.000264497 -0.000183783 -0.000227213 -0.000367695 -0.000499246 -0.000528621 -0.000439185 -0.000296606 -0.000197509 -0.000200075 -0.000291818 -0.000401966 -0.000448267 -0.000385086 -0.000223069 -1.89189e-05 0.000159042 0.000266269 0.000298963 0.000292022 0.000297859 0.000361552 0.000502768 0.000708813 0.000941643 0.00115205 0.00129624 0.00134712 0.00130045 0.00117162 0.000988501 0.000783079 0.000582524 0.000404686 0.00025743 0.000139366 4.28972e-05 -4.28666e-05 -0.000127815 -0.000218708 -0.000316254 -0.000416961 -0.000515743 -0.000605652 -0.000676822 -0.000718119 -0.000720752 -0.000683319 -0.000614623 -0.000530201 -0.000446114 -0.000372598 -0.000313099 -0.000265161 -0.000223998 -0.000185443 -0.000147556 -0.000109712 -7.28679e-05 -3.79164e-05 -5.72185e-06 2.33316e-05 4.87064e-05 7.0314e-05 8.80948e-05 0.000102235 0.000112933 0.000120526 0.000124883 0.000126305 0.000124806 0.000120423 0.000112969 0.000102645 8.90221e-05 7.14807e-05 4.84067e-05 1.65195e-05 -2.92173e-05 -9.24745e-05 -0.000170441 -0.000246728 -0.000291442 -0.000274153 -0.000190359 -8.10535e-05 -2.44281e-05 -8.83547e-05 -0.000274292 -0.000504401 -0.000677002 -0.000744579 -0.000739386 -0.000718332 -0.000695437 -0.0006412 -0.000540746 -0.000423374 -0.000323229 -0.000238078 -0.000148036 -5.38204e-05 3.23612e-05 0.000120122 0.000235986 0.00038803 0.000565004 0.000759737 0.000965191 0.0011521 0.00127979 0.00132411 0.00127623 0.00113553 0.000924796 0.000693231 0.000491606 0.00035251 0.000289085 0.00028635 0.000296683 0.000264425 0.000158095 -1.67557e-05 -0.000219003 -0.000380973 -0.000443262 -0.000395455 -0.000284795 -0.000194082 -0.000192914 -0.000291909 -0.000432662 -0.000520558 -0.000491302 -0.000360746 -0.000220618 -0.000176281 -0.000255811 -0.000382431 -0.000433824 -0.000345706 -0.000186712 -9.8316e-05 -0.000149281 -0.000273752 -0.000315542 -0.000205625 -5.76132e-05 -1.95458e-05 -0.000106056 -0.000179066 -0.000121132 -1.5773e-05 6.01223e-06 -3.48593e-05 -5.38981e-05 -2.68143e-05 3.25587e-06 1.04518e-07 -1.10856e-05 -5.9433e-06 7.40058e-07 -1.24369e-07 -1.33294e-06 -5.00027e-07 2.93085e-09 0 0 
0 0 -3.56675e-09 -4.5083e-07 -1.24067e-06 -2.28581e-07 6.76149e-07 -6.73334e-06 -1.16082e-05 4.05122e-06 1.16083e-06 -4.66265e-05 -5.89853e-05 -5.63056e-06 1.32949e-05 -7.50076e-05 -0.000206932 -0.000191748 -1.73287e-05 1.55984e-05 -0.000204569 -0.000426304 -0.000416014 -0.000200213 -5.87055e-05 -0.000197576 -0.000482079 -0.000643434 -0.00055241 -0.000316505 -0.000188354 -0.00030428 -0.000574938 -0.000791666 -0.000790643 -0.000591099 -0.000362528 -0.000279315 -0.000405553 -0.000651435 -0.000849247 -0.000868207 -0.000687169 -0.000400923 -0.000149332 -3.69662e-05 -8.18502e-05 -0.00020862 -0.000300381 -0.000254951 -3.05784e-05 0.000340535 0.00077507 0.00117356 0.00145997 0.00160253 0.00161701 0.00155284 0.00146985 0.00141723 0.00141665 0.00146173 0.00152198 0.00155497 0.00152012 0.00138891 0.00115145 0.000816553 0.000409464 -3.47445e-05 -0.00047721 -0.00088015 -0.00121205 -0.00145132 -0.00158979 -0.00162849 -0.00157139 -0.00142197 -0.00118958 -0.000895932 -0.000576076 -0.000269436 -8.54483e-06 0.00018893 0.000321296 0.000398586 0.000435622 0.000445402 0.00043805 0.000419345 0.000393985 0.00036432 0.000332895 0.000301368 0.000272093 0.00024572 0.000222761 0.000204038 0.000190441 0.000181751 0.000178864 0.000181756 0.000190537 0.000204492 0.000223961 0.000247635 0.000272731 0.000293751 0.000301801 0.000286376 0.000246426 0.00020051 0.000192347 0.000271292 0.000453002 0.000675488 0.000802872 0.000696273 0.000320555 -0.000208602 -0.000700553 -0.00103638 -0.00124391 -0.00141953 -0.0015915 -0.00168815 -0.00163986 -0.00146301 -0.00121541 -0.000907028 -0.000512935 -5.35713e-05 0.000397385 0.000789015 0.00111545 0.00136172 0.00149526 0.00151927 0.00148334 0.00143089 0.00138599 0.00138091 0.0014373 0.00152784 0.00159171 0.00157752 0.00144244 0.0011604 0.000761479 0.000331314 -3.35708e-05 -0.000257707 -0.000302269 -0.000205059 -7.53945e-05 -3.12582e-05 -0.000141339 -0.000389505 -0.000675921 -0.000859522 -0.000842314 -0.000643527 -0.000394712 -0.000266893 -0.000350795 -0.000579948 -0.000778529 -0.000778139 -0.000560996 -0.000291907 -0.000177805 -0.000305975 -0.00053986 -0.000628872 -0.00046935 -0.000189246 -5.27153e-05 -0.000192933 -0.000406649 -0.000417466 -0.000198968 1.81261e-05 -1.47963e-05 -0.000187604 -0.000202913 -7.27575e-05 1.42619e-05 -4.75423e-06 -5.77424e-05 -4.56374e-05 1.47482e-06 4.16555e-06 -1.13485e-05 -6.51339e-06 6.07186e-07 -3.71338e-07 -7.89679e-07 -3.79325e-07 0 0 
0 0 -2.912e-07 -7.73959e-07 -6.4553e-07 5.80965e-07 -6.05569e-06 -1.16082e-05 5.52649e-06 -1.1346e-06 -6.16742e-05 -5.14503e-05 3.23564e-05 -1.41791e-05 -0.000170576 -0.000235383 -0.000105669 7.9402e-05 -7.8852e-05 -0.00049814 -0.0005849 -0.000270839 3.92149e-06 -0.00011759 -0.000589423 -0.000903282 -0.000742823 -0.000351317 -0.000145664 -0.000364725 -0.000843747 -0.00115506 -0.00106802 -0.000689935 -0.000356279 -0.000367125 -0.000720913 -0.00116943 -0.00140665 -0.00127598 -0.000881016 -0.000475098 -0.000299731 -0.000438551 -0.000775308 -0.00108832 -0.00116631 -0.000920024 -0.000414722 0.000185716 0.000694367 0.000994964 0.0010763 0.00102272 0.000969954 0.0010414 0.00130632 0.00175366 0.00230799 0.00285117 0.00326225 0.00345192 0.00337543 0.00304402 0.00251034 0.0018523 0.00115273 0.000486601 -8.92497e-05 -0.000544126 -0.000868888 -0.00107606 -0.0011864 -0.00122226 -0.00120807 -0.00116972 -0.00112094 -0.00105902 -0.000970235 -0.000842056 -0.0006815 -0.000515906 -0.000384016 -0.000312361 -0.000309273 -0.000362775 -0.000450558 -0.000547743 -0.000639399 -0.000714952 -0.00077305 -0.00081397 -0.000841597 -0.000857894 -0.000866009 -0.00086793 -0.000866374 -0.000863664 -0.000861699 -0.000859952 -0.000859001 -0.000859559 -0.000860798 -0.00086193 -0.000863557 -0.000865811 -0.000873133 -0.000895335 -0.000944835 -0.00102276 -0.00110203 -0.00111157 -0.000959806 -0.000592887 -7.68284e-05 0.000387382 0.000550791 0.000300018 -0.000228037 -0.000726576 -0.00096802 -0.000980157 -0.000970187 -0.00106894 -0.00120976 -0.00126494 -0.00123532 -0.00121599 -0.00121669 -0.00113543 -0.000903865 -0.000556452 -0.000123779 0.000428994 0.00110758 0.00181859 0.00245994 0.00298228 0.00332675 0.00340874 0.003208 0.00279902 0.00227056 0.00171779 0.00126742 0.00101371 0.000951813 0.00100296 0.0010613 0.000990955 0.000691038 0.000181925 -0.000409515 -0.000909887 -0.00115808 -0.00107571 -0.000755652 -0.000421011 -0.000286837 -0.000463039 -0.000866892 -0.00125921 -0.0013886 -0.00115155 -0.000701268 -0.000344875 -0.000334232 -0.000670427 -0.00105098 -0.0011381 -0.000824138 -0.000342667 -0.000124489 -0.000333253 -0.000722496 -0.000882716 -0.000574174 -0.000109013 1.02939e-05 -0.000262054 -0.0005731 -0.00048806 -7.43638e-05 8.13448e-05 -0.000102154 -0.000230746 -0.000167067 -1.27701e-05 3.29474e-05 -5.0214e-05 -6.05679e-05 -7.97245e-07 5.764e-06 -1.14326e-05 -6.14297e-06 9.41626e-07 -1.20265e-07 -7.09579e-07 0 0 
0 0 -6.24502e-07 -3.31171e-07 6.08423e-07 -4.75906e-06 -1.13199e-05 4.05122e-06 -1.1346e-06 -6.75713e-05 -4.28901e-05 6.27298e-05 -6.72992e-05 -0.000268425 -0.000163063 3.75863e-05 3.69464e-05 -0.000336059 -0.000764286 -0.000475511 0.000115115 3.13905e-05 -0.000608375 -0.00115732 -0.00104387 -0.000367276 -1.34883e-05 -0.000392421 -0.0011231 -0.0015884 -0.00135399 -0.000695283 -0.000275991 -0.000459944 -0.00115197 -0.00182026 -0.00196893 -0.00154819 -0.000877799 -0.000456403 -0.000577703 -0.00114861 -0.00181505 -0.00215485 -0.00196419 -0.00133176 -0.000549325 3.07647e-05 0.000215123 2.078e-05 -0.000342119 -0.000580902 -0.00046682 9.62439e-05 0.00102749 0.00213104 0.00316951 0.0039407 0.00433934 0.00436129 0.00409835 0.00367862 0.00323619 0.00287035 0.00262454 0.00248967 0.00241021 0.00231717 0.00214027 0.00183105 0.00136581 0.0007505 1.74509e-05 -0.000779241 -0.00157252 -0.00230385 -0.00292235 -0.00339042 -0.00366234 -0.00369986 -0.00349415 -0.00308634 -0.00255842 -0.00200443 -0.00149582 -0.00106798 -0.00072483 -0.000447291 -0.000216103 -1.44698e-05 0.00016225 0.00031977 0.00045694 0.000574643 0.000669815 0.00074701 0.000808188 0.000854955 0.000886117 0.000905106 0.000911561 0.000906301 0.000888849 0.00085951 0.00081285 0.000742231 0.000629027 0.000448282 0.000181472 -0.000144162 -0.000440325 -0.000564056 -0.000406725 -8.88372e-06 0.000359148 0.000307875 -0.000405887 -0.00162829 -0.0028584 -0.00361517 -0.00380891 -0.00372696 -0.00363966 -0.00350091 -0.00308941 -0.00237089 -0.00155135 -0.000799367 -7.18681e-05 0.000683386 0.0013519 0.00179634 0.00205535 0.00224134 0.00236453 0.00242546 0.00253144 0.00279281 0.00317726 0.00360325 0.00401732 0.00430482 0.00429165 0.00388368 0.0031256 0.00210684 0.00100083 7.17275e-05 -0.000473649 -0.000583817 -0.000349105 2.71591e-05 0.00023114 4.32041e-05 -0.00053028 -0.00130001 -0.00193724 -0.00213619 -0.00179417 -0.00112593 -0.000555926 -0.000433147 -0.000850987 -0.00151593 -0.00193397 -0.00179091 -0.00112923 -0.000436801 -0.000248381 -0.000663799 -0.00132436 -0.00156556 -0.00110529 -0.000374528 -1.22268e-06 -0.000351414 -0.00102036 -0.00113371 -0.000592764 3.82043e-05 0.000120145 -0.000464278 -0.00075056 -0.000327975 4.00195e-05 3.99049e-05 -0.00015913 -0.00026368 -6.50642e-05 6.30068e-05 -4.18078e-05 -6.62461e-05 -7.89468e-07 3.92826e-06 -1.09241e-05 -4.14216e-06 -6.30064e-07 -1.8853e-07 0 0 
0 0 -3.94742e-07 -4.55801e-07 -2.47678e-06 -1.02562e-05 -9.49925e-08 1.16083e-06 -6.16742e-05 -4.28901e-05 7.39596e-05 -0.000111202 -0.000334968 -1.64885e-05 0.000157044 -0.000235101 -0.000623946 -0.000708147 -9.95277e-05 0.000396125 -0.000463027 -0.0014491 -0.00131376 -0.000489488 0.000195111 -0.000233619 -0.00145733 -0.00205969 -0.00162637 -0.000645675 -5.69614e-05 -0.000578526 -0.00171211 -0.00253801 -0.00247003 -0.00156137 -0.000641948 -0.000430558 -0.00109323 -0.00222742 -0.00304805 -0.00307542 -0.00231949 -0.00123762 -0.000477772 -0.000402534 -0.00100294 -0.00188773 -0.00251742 -0.00251547 -0.00175385 -0.000453208 0.0010045 0.00222646 0.00295457 0.00316861 0.00302015 0.00279568 0.00275166 0.00306034 0.00375556 0.00471653 0.00574839 0.00660449 0.00708516 0.00705062 0.00646774 0.00538612 0.00392577 0.00225369 0.000538097 -0.00106307 -0.00243743 -0.00350736 -0.00423542 -0.00461149 -0.00467599 -0.00448839 -0.00409115 -0.00350444 -0.00273233 -0.00181241 -0.00082611 9.76306e-05 0.000849186 0.00136217 0.00163616 0.00170678 0.00164536 0.00150096 0.0013208 0.00112578 0.000937511 0.000760553 0.000601447 0.000460872 0.00034337 0.000252134 0.000189074 0.000151375 0.000137823 0.000153855 0.000195008 0.000260584 0.000344144 0.000422328 0.000459312 0.000422268 0.000325085 0.000266534 0.000443361 0.00103822 0.00205504 0.00314419 0.00370006 0.00319963 0.0016749 -0.000229239 -0.00170723 -0.00246245 -0.00286134 -0.00342451 -0.00418912 -0.00475004 -0.00482845 -0.00458151 -0.00421943 -0.00362169 -0.00256072 -0.00108971 0.00051608 0.00214356 0.00380139 0.00531936 0.00639461 0.00692085 0.00696199 0.00652355 0.00565283 0.00459726 0.00366893 0.00300016 0.00267477 0.00272633 0.00298622 0.00313578 0.00291561 0.00221235 0.0010038 -0.000462793 -0.00174775 -0.00248912 -0.00249677 -0.0018601 -0.000955065 -0.000360635 -0.000450823 -0.00120334 -0.0022855 -0.00305095 -0.0030196 -0.00218606 -0.00104405 -0.000381892 -0.000605804 -0.00153359 -0.0024345 -0.00249366 -0.00166938 -0.000545915 -3.44221e-05 -0.000622849 -0.00159388 -0.00202211 -0.00142594 -0.000219313 0.000203819 -0.000473603 -0.00128885 -0.00142335 -0.000449715 0.000398162 -9.26617e-05 -0.000694841 -0.000612196 -0.000228639 0.000158353 -1.39297e-05 -0.000329457 -0.000108572 7.42801e-05 -4.16675e-05 -6.08188e-05 1.42842e-06 6.49602e-07 -1.08611e-05 -4.25305e-06 1.42041e-08 0 0 
0 0 -9.47499e-08 -2.91919e-06 -8.56677e-06 -3.98365e-06 3.00671e-06 -4.66265e-05 -5.14503e-05 6.27298e-05 -0.000111202 -0.000357232 0.000102416 0.000207056 -0.000643344 -0.000746142 -0.000192071 0.000173584 8.35887e-05 -0.00130531 -0.00197553 -0.000527011 0.000453269 -7.93493e-05 -0.00148322 -0.00266083 -0.00198651 -0.000401981 0.00015283 -0.000649544 -0.00232599 -0.00334724 -0.00273927 -0.00133471 -0.000255805 -0.000491523 -0.00198257 -0.0035249 -0.00416965 -0.00347952 -0.00198489 -0.00078346 -0.000573918 -0.00154602 -0.00307629 -0.0042675 -0.00449872 -0.00356404 -0.00193102 -0.000262798 0.000817279 0.00100922 0.000500475 -0.000282522 -0.000741514 -0.000456024 0.000727834 0.00267712 0.0049916 0.00722585 0.008933 0.0098682 0.00994657 0.00926876 0.00806263 0.00658551 0.00510223 0.00378525 0.00274108 0.00197335 0.00144483 0.00105923 0.000720805 0.000343377 -0.000132328 -0.000703234 -0.00137694 -0.00211295 -0.0028859 -0.00360082 -0.00413832 -0.00438685 -0.00432477 -0.00402537 -0.00364144 -0.003311 -0.00310374 -0.00303141 -0.00304547 -0.00309594 -0.00312802 -0.00313237 -0.00310206 -0.00304908 -0.00297324 -0.00289656 -0.00282124 -0.00275992 -0.00270761 -0.00267498 -0.00266128 -0.00266997 -0.00269721 -0.00275216 -0.00285003 -0.00304038 -0.00335747 -0.00380402 -0.0042497 -0.00443569 -0.00402793 -0.00288963 -0.00132783 -0.000150954 -0.000194932 -0.00166978 -0.00379939 -0.00533104 -0.00553775 -0.00478551 -0.00400578 -0.00361729 -0.00323747 -0.00241663 -0.00137337 -0.000618982 -0.000243146 0.000139319 0.000651479 0.00106311 0.00132782 0.00178246 0.00263153 0.00370924 0.00494015 0.00639663 0.00794523 0.0091587 0.00978466 0.00973387 0.00885558 0.00713103 0.00488524 0.00262323 0.000691472 -0.000512247 -0.00076943 -0.00027717 0.000494673 0.00101331 0.000857755 -0.000226483 -0.00189412 -0.00349747 -0.00443511 -0.00422743 -0.00302637 -0.0014964 -0.000549314 -0.000748763 -0.00192226 -0.0034106 -0.00410905 -0.0034782 -0.00194359 -0.000437356 -0.000193404 -0.00128584 -0.00270483 -0.003316 -0.00228537 -0.000596566 0.000199335 -0.000370975 -0.00194408 -0.00261197 -0.00145188 -6.73429e-05 0.000457108 -0.000511919 -0.00194414 -0.00128249 8.9324e-05 0.00017761 -0.00018494 -0.000733367 -0.000631998 0.000208193 0.000103504 -0.000351462 -0.000108289 6.28439e-05 -5.05088e-05 -4.51561e-05 3.00448e-06 -5.62423e-06 -6.52035e-06 -2.11154e-06 0 0 
0 0 -1.19084e-06 -5.67565e-06 -8.25561e-06 2.50848e-06 -2.75146e-05 -5.89853e-05 3.23564e-05 -6.72992e-05 -0.000334968 0.000102416 0.000215011 -0.000948162 -0.000687297 0.000559419 -3.20431e-05 -0.000915295 -0.00165656 -0.00153292 0.00067941 0.000702459 -0.00183807 -0.00292671 -0.0023685 -0.000502988 0.000798789 -0.000768257 -0.0030348 -0.00392 -0.00302061 -0.000786501 0.000238626 -0.000874076 -0.00303988 -0.00491515 -0.00483109 -0.00308165 -0.00115416 -0.000295231 -0.00137139 -0.00356035 -0.00552702 -0.00620688 -0.00511715 -0.00305928 -0.00106932 -0.000161309 -0.000736076 -0.00226893 -0.00399758 -0.0048815 -0.00439948 -0.00253472 0.00028729 0.00326562 0.00577768 0.00730813 0.00783018 0.00757966 0.0069645 0.00648906 0.00643975 0.00700181 0.00803903 0.0093398 0.0105454 0.0113284 0.0114314 0.0106999 0.00914536 0.00686146 0.0040788 0.00101279 -0.00206295 -0.00492997 -0.00736749 -0.00925619 -0.0105598 -0.0112543 -0.0113178 -0.0106889 -0.00939252 -0.00754528 -0.00542646 -0.00332086 -0.0014834 -7.99131e-06 0.001072 0.00185824 0.0024234 0.00285787 0.00318134 0.00343432 0.00362299 0.00376765 0.00387145 0.00394549 0.00399203 0.00401965 0.00403625 0.00402937 0.00400473 0.00392988 0.00374219 0.00336794 0.00275879 0.00200285 0.00138089 0.00134073 0.00216855 0.00364448 0.00477457 0.00428226 0.00147289 -0.00290677 -0.00709422 -0.00957698 -0.0103599 -0.0105988 -0.0111644 -0.0116317 -0.01108 -0.00936302 -0.00719865 -0.00497585 -0.00235272 0.000848097 0.00410592 0.00677679 0.00888407 0.0105094 0.0113497 0.011154 0.0102774 0.00915806 0.00791829 0.00680296 0.00623486 0.00637873 0.00685783 0.00742888 0.00773793 0.00727149 0.0057098 0.00321543 0.00029998 -0.00252616 -0.00439944 -0.00483115 -0.00393734 -0.00222449 -0.000653568 -6.91179e-05 -0.00100988 -0.00299572 -0.00504878 -0.00618194 -0.00548994 -0.00347476 -0.00128623 -0.000227165 -0.00108923 -0.00302308 -0.00476282 -0.00484349 -0.00299052 -0.000831747 0.000292714 -0.000724399 -0.00295918 -0.00387752 -0.00301412 -0.000741474 0.000806525 -0.000478045 -0.00232361 -0.00287556 -0.00180209 0.000706505 0.00068056 -0.00150633 -0.00162935 -0.000897521 -2.56134e-05 0.000558094 -0.000675363 -0.0009338 0.000215976 0.000103874 -0.00032957 -6.55498e-05 3.32748e-05 -5.75168e-05 -2.85024e-05 2.9541e-06 -3.77166e-06 -4.92915e-06 0 0 
0 0 -3.48245e-06 -5.11068e-06 -1.13271e-06 -1.29676e-05 -5.50586e-05 -5.63056e-06 -1.41791e-05 -0.000268425 -1.64885e-05 0.000207056 -0.000948162 -0.000627793 0.00110261 -0.000578576 -0.00213072 -0.000861874 -0.000279205 0.000761461 -0.000349101 -0.00393573 -0.00291992 5.56159e-05 0.000673777 -0.000297294 -0.00343818 -0.00497818 -0.00268628 -0.000311356 0.000590905 -0.00111187 -0.00453567 -0.00589545 -0.00483027 -0.00220919 4.87919e-05 -0.000466263 -0.00294088 -0.00595862 -0.00759724 -0.00659214 -0.00411196 -0.00146665 -0.000428333 -0.00162103 -0.00415562 -0.00691949 -0.00822239 -0.00753352 -0.00509376 -0.00176668 0.00107347 0.00276103 0.00287918 0.00192309 0.000704976 4.83157e-05 0.000717786 0.00278866 0.0061476 0.0100988 0.0139575 0.017011 0.0187234 0.0189302 0.0176291 0.015156 0.0118621 0.00825431 0.00466916 0.00147054 -0.00115288 -0.00313508 -0.00446678 -0.00528411 -0.00561206 -0.00563399 -0.00540238 -0.00511433 -0.00475972 -0.00428969 -0.00353206 -0.00245739 -0.00114231 0.000152794 0.00114587 0.00168318 0.00172535 0.00141261 0.000856296 0.000225752 -0.000404294 -0.000962329 -0.00146068 -0.00185993 -0.00219661 -0.00243496 -0.00261667 -0.00271253 -0.00274726 -0.00269868 -0.00261792 -0.00253767 -0.00257765 -0.00277529 -0.00312122 -0.00327172 -0.00269014 -0.000801897 0.00234088 0.00573291 0.00757511 0.00651784 0.00278324 -0.00155048 -0.00416388 -0.00441829 -0.00374897 -0.00391788 -0.00501943 -0.00586745 -0.00575552 -0.00542162 -0.00550784 -0.00561451 -0.00478776 -0.00312756 -0.00115715 0.00116993 0.00435269 0.00813912 0.0117065 0.0148174 0.0173426 0.0187863 0.0185074 0.0167189 0.013783 0.00998589 0.00596029 0.00263533 0.000675593 -1.49351e-05 0.000623949 0.00193304 0.00291126 0.0027563 0.00111864 -0.00167725 -0.00503665 -0.00744503 -0.00809435 -0.00683036 -0.00407985 -0.00153445 -0.00039328 -0.0014358 -0.00400695 -0.00649211 -0.00752049 -0.00586193 -0.00284964 -0.000394647 0.000125109 -0.00214862 -0.00476333 -0.00580911 -0.00446191 -0.00106225 0.000630509 -0.000278937 -0.00262782 -0.00490355 -0.00337446 -0.000277588 0.000679392 6.78244e-05 -0.00287072 -0.00387505 -0.000332363 0.000763509 -0.000265939 -0.000844085 -0.00209864 -0.000564721 0.00109563 -0.000617174 -0.000933622 0.000208208 -1.45651e-05 -0.000263762 -1.21358e-05 -5.93037e-06 -5.50674e-05 -9.40826e-06 -2.85782e-06 -4.389e-06 0 0 