<?xml version="1.0"?>
<VTKFile type="ImageData" version="0.1" byte_order="LittleEndian">
<ImageData WholeExtent="0 199 0 199 0 0" Origin="0 0 0" Spacing="15 15 0">
<Piece Extent="0 199 0 199 0 0">
<PointData Scalars="Amplitude">
<DataArray type="Float32" Name="Amplitude" format="ascii">
0 0 0 0 0 0 0 0 0 0 0 0 0 0 0 0 0 0 0 0 0 0 0 0 0 0 0 0 0 0 0 0 0 0 0 0 0 0 0 0 0 0 0 0 0 0 0 0 0 0 0 0 0 0 0 0 0 0 0 0 0 0 0 0 0 0 0 0 0 0 0 0 0 0 0 0 0 0 0 0 0 0 0 0 0 0 0 0 0 0 0 0 0 0 0 0 0 0 0 0 0 0 0 0 0 0 0 0 0 0 0 0 0 0 0 0 0 0 0 0 0 0 0 0 0 0 0 0 0 0 0 0 0 0 0 0 0 0 0 0 0 0 0 0 0 0 0 0 0 0 0 0 0 0 0 0 0 0 0 0 0 0 0 0 0 0 0 0 0 0 0 0 0 0 0 0 0 0 0 0 0 0 0 0 0 0 0 0 0 0 0 0 0 0 0 0 0 0 0 0 
0 0 0 0 0 0 0 0 0 0 0 0 0 0 0 0 0 0 0 0 0 0 0 0 0 0 0 0 0 0 0 0 0 0 0 0 0 0 0 0 0 0 0 0 0 0 0 0 0 0 0 0 0 0 0 0 0 0 0 0 0 0 0 0 0 0 0 0 0 0 0 0 0 0 0 0 0 0 0 0 0 0 0 0 0 0 0 0 0 0 0 0 0 0 0 0 0 0 0 0 0 0 0 0 0 0 0 0 0 0 0 0 0 0 0 0 0 0 0 0 0 0 0 0 0 0 0 0 0 0 0 0 0 0 0 0 0 0 0 0 0 0 0 0 0 0 0 0 0 0 0 0 0 0 0 0 0 0 0 0 0 0 0 0 0 0 0 0 0 0 0 0 0 0 0 0 0 0 0 0 0 0 0 0 0 0 0 0 0 0 0 0 0 0 0 0 0 0 0 0 
0 0 -8.22914e-10 -1.60121e-09 -7.14184e-09 -3.41311e-08 -3.97571e-08 -8.97456e-09 -9.81244e-08 -3.79229e-07 -5.42009e-07 -3.66898e-07 -3.56995e-07 -1.43706e-06 -3.30005e-06 -3.81302e-06 -2.55474e-06 -2.6058e-06 -6.06934e-06 -1.08827e-05 -1.29662e-05 -1.11563e-05 -9.43243e-06 -1.1915e-05 -1.78505e-05 -2.29377e-05 -2.37204e-05 -2.09724e-05 -1.87983e-05 -2.04579e-05 -2.57254e-05 -3.13133e-05 -3.37061e-05 -3.20907e-05 -2.86619e-05 -2.67694e-05 -2.8453e-05 -3.30356e-05 -3.7835e-05 -3.999e-05 -3.82272e-05 -3.34726e-05 -2.80435e-05 -2.42302e-05 -2.29934e-05 -2.35299e-05 -2.38365e-05 -2.17175e-05 -1.58193e-05 -6.10045e-06 6.29933e-06 1.96195e-05 3.22089e-05 4.30562e-05 5.20017e-05 5.95769e-05 6.66388e-05 7.39135e-05 8.16455e-05 8.94865e-05 9.65437e-05 0.000101633 0.000103584 0.000101497 9.4919e-05 8.39124e-05 6.90324e-05 5.122e-05 3.1673e-05 1.16735e-05 -7.57817e-06 -2.50647e-05 -4.00249e-05 -5.19517e-05 -6.05378e-05 -6.56684e-05 -6.74618e-05 -6.61881e-05 -6.21313e-05 -5.55386e-05 -4.67571e-05 -3.64377e-05 -2.56118e-05 -1.5504e-05 -7.17323e-06 -1.20179e-06 2.38753e-06 4.0127e-06 4.29818e-06 3.81793e-06 2.98893e-06 2.0576e-06 1.15285e-06 3.22339e-07 -4.11183e-07 -1.03731e-06 -1.55184e-06 -1.95292e-06 -2.23726e-06 -2.4066e-06 -2.4503e-06 -2.36649e-06 -2.16175e-06 -1.88854e-06 -1.6789e-06 -1.80369e-06 -2.61667e-06 -4.33393e-06 -6.63884e-06 -8.33343e-06 -7.48847e-06 -2.48171e-06 6.43105e-06 1.61066e-05 2.14367e-05 1.8272e-05 6.45304e-06 -9.88894e-06 -2.54525e-05 -3.76073e-05 -4.72457e-05 -5.60625e-05 -6.37658e-05 -6.84819e-05 -6.92376e-05 -6.67586e-05 -6.17307e-05 -5.35621e-05 -4.1548e-05 -2.62462e-05 -8.84684e-06 1.00439e-05 2.99746e-05 4.96326e-05 6.73024e-05 8.1932e-05 9.2939e-05 9.96084e-05 0.000101617 9.96227e-05 9.47018e-05 8.78101e-05 8.0036e-05 7.24696e-05 6.54534e-05 5.85602e-05 5.11234e-05 4.24096e-05 3.17701e-05 1.92937e-05 6.12205e-06 -6.07649e-06 -1.56513e-05 -2.14515e-05 -2.34461e-05 -2.30306e-05 -2.2459e-05 -2.37226e-05 -2.7559e-05 -3.29461e-05 -3.76063e-05 -3.92959e-05 -3.71198e-05 -3.2319e-05 -2.77164e-05 -2.59935e-05 -2.78616e-05 -3.13097e-05 -3.29648e-05 -3.05888e-05 -2.49749e-05 -1.96631e-05 -1.79709e-05 -2.01194e-05 -2.29276e-05 -2.22532e-05 -1.72967e-05 -1.14841e-05 -9.07344e-06 -1.08152e-05 -1.26418e-05 -1.06185e-05 -5.89117e-06 -2.49202e-06 -2.46131e-06 -3.72107e-06 -3.22601e-06 -1.39393e-06 -3.34482e-07 -3.50575e-07 -5.27848e-07 -3.7013e-07 -9.47049e-08 -7.00197e-09 -3.73705e-08 -3.52103e-08 -1.10312e-08 -5.71158e-10 0 0 
0 0 -1.60121e-09 -1.46333e-08 -4.26468e-08 -4.29112e-08 -1.78174e-08 -1.99126e-07 -5.77373e-07 -5.79681e-07 -3.57263e-07 -1.13263e-06 -3.2878e-06 -5.20694e-06 -4.48348e-06 -3.06014e-06 -7.23178e-06 -1.62023e-05 -2.14396e-05 -1.93772e-05 -1.57212e-05 -1.98817e-05 -3.30917e-05 -4.49202e-05 -4.68784e-05 -4.12074e-05 -3.72821e-05 -4.28375e-05 -5.59532e-05 -6.76481e-05 -7.08097e-05 -6.55081e-05 -5.88735e-05 -5.87496e-05 -6.72965e-05 -8.01779e-05 -8.98393e-05 -9.10955e-05 -8.44376e-05 -7.4984e-05 -6.89989e-05 -6.97804e-05 -7.59787e-05 -8.27177e-05 -8.42776e-05 -7.72152e-05 -6.16967e-05 -4.09439e-05 -1.94342e-05 -5.90474e-07 1.45202e-05 2.74015e-05 4.11562e-05 5.9008e-05 8.29861e-05 0.000113087 0.000147291 0.000182084 0.000213469 0.000237835 0.000252664 0.000256882 0.000250719 0.000235399 0.00021269 0.000184557 0.000152852 0.000119121 8.45767e-05 5.01223e-05 1.65138e-05 -1.56063e-05 -4.56419e-05 -7.29769e-05 -9.68797e-05 -0.000116565 -0.000131352 -0.0001408 -0.000144614 -0.000142504 -0.000134331 -0.000120516 -0.000102527 -8.28166e-05 -6.41932e-05 -4.88702e-05 -3.78905e-05 -3.10549e-05 -2.73785e-05 -2.56131e-05 -2.47471e-05 -2.41306e-05 -2.34951e-05 -2.27771e-05 -2.20235e-05 -2.12985e-05 -2.06505e-05 -2.00778e-05 -1.96155e-05 -1.93056e-05 -1.91624e-05 -1.91796e-05 -1.94248e-05 -2.01038e-05 -2.16952e-05 -2.497e-05 -3.06557e-05 -3.85244e-05 -4.64407e-05 -5.01515e-05 -4.49458e-05 -2.91365e-05 -7.42522e-06 9.40604e-06 9.95322e-06 -9.92158e-06 -4.35339e-05 -7.8128e-05 -0.000104475 -0.000122064 -0.000135212 -0.000145478 -0.000149834 -0.000145612 -0.000134387 -0.000119233 -0.000100505 -7.67975e-05 -4.8663e-05 -1.84805e-05 1.28374e-05 4.604e-05 8.07446e-05 0.00011514 0.000148244 0.000179768 0.000208129 0.000230737 0.000245862 0.000252318 0.000248528 0.000233864 0.000209803 0.000179017 0.000144668 0.000110778 8.12005e-05 5.77454e-05 4.01822e-05 2.67871e-05 1.44093e-05 -3.43687e-07 -1.89236e-05 -4.00585e-05 -6.04934e-05 -7.59323e-05 -8.30299e-05 -8.14761e-05 -7.46428e-05 -6.82858e-05 -6.73755e-05 -7.32784e-05 -8.26394e-05 -8.92103e-05 -8.79216e-05 -7.82907e-05 -6.54729e-05 -5.69569e-05 -5.70469e-05 -6.36344e-05 -6.89459e-05 -6.58666e-05 -5.42598e-05 -4.09927e-05 -3.57367e-05 -3.97831e-05 -4.55099e-05 -4.36967e-05 -3.21188e-05 -1.91594e-05 -1.5129e-05 -1.88158e-05 -2.09204e-05 -1.58037e-05 -6.98856e-06 -2.90633e-06 -4.34561e-06 -5.08546e-06 -3.20672e-06 -1.08933e-06 -3.33565e-07 -5.62327e-07 -5.63906e-07 -1.91093e-07 -1.75518e-08 -4.64296e-08 -3.30425e-08 -1.17924e-08 0 0 
0 0 -7.14184e-09 -4.26468e-08 -8.7728e-08 6.3452e-09 -6.56841e-08 -7.31189e-07 -1.00593e-06 -8.35785e-08 -4.22431e-07 -3.93839e-06 -7.70842e-06 -6.54353e-06 -9.05848e-07 -4.06957e-06 -2.20951e-05 -3.4869e-05 -2.74137e-05 -1.30472e-05 -1.55223e-05 -4.29376e-05 -7.16698e-05 -7.42046e-05 -5.50681e-05 -4.01326e-05 -5.00083e-05 -8.13079e-05 -0.000108886 -0.000112789 -9.47325e-05 -7.41803e-05 -7.26297e-05 -9.47813e-05 -0.00012681 -0.000148463 -0.000147114 -0.000126836 -0.000103607 -9.39081e-05 -0.000104599 -0.000128984 -0.000152351 -0.000160438 -0.000146862 -0.000115905 -7.87304e-05 -4.74926e-05 -2.92623e-05 -2.32947e-05 -2.22586e-05 -1.57005e-05 5.21353e-06 4.46017e-05 0.000100688 0.00016684 0.000233951 0.000293125 0.000338121 0.00036602 0.000377393 0.000375248 0.000363478 0.000345623 0.000324051 0.00029978 0.000272576 0.000241441 0.000205091 0.000162575 0.000113873 5.98677e-05 2.33575e-06 -5.62337e-05 -0.00011293 -0.000164766 -0.000208791 -0.000242753 -0.00026527 -0.00027552 -0.000272882 -0.000257242 -0.00022997 -0.000194526 -0.000156052 -0.000119794 -8.94605e-05 -6.64446e-05 -5.02396e-05 -3.90337e-05 -3.09593e-05 -2.45675e-05 -1.91445e-05 -1.43268e-05 -1.00915e-05 -6.48681e-06 -3.54099e-06 -1.17593e-06 5.92048e-07 1.75061e-06 2.22766e-06 1.99898e-06 8.33475e-07 -1.84141e-06 -7.23656e-06 -1.6813e-05 -3.12573e-05 -4.84818e-05 -6.24248e-05 -6.44395e-05 -4.86022e-05 -1.84031e-05 1.01708e-05 1.53725e-05 -1.61417e-05 -7.77922e-05 -0.000146764 -0.00020113 -0.000235221 -0.000257575 -0.000275172 -0.000283651 -0.000274709 -0.000248286 -0.000211882 -0.000169728 -0.000119678 -6.15774e-05 -1.51615e-06 5.47306e-05 0.000107091 0.000156243 0.000199329 0.00023454 0.000264696 0.000292451 0.000317041 0.000337941 0.000355875 0.000368675 0.000371239 0.000359944 0.000332976 0.00028901 0.000230177 0.000163664 9.85724e-05 4.30234e-05 3.92329e-06 -1.61369e-05 -2.19048e-05 -2.26306e-05 -2.80831e-05 -4.55628e-05 -7.65531e-05 -0.000113888 -0.000144907 -0.000158342 -0.000149982 -0.000126395 -0.000101912 -9.10778e-05 -0.000100559 -0.000123703 -0.000144088 -0.000145613 -0.000124051 -9.19313e-05 -6.96465e-05 -7.12194e-05 -9.20025e-05 -0.000110332 -0.000106501 -7.87029e-05 -4.79011e-05 -3.83279e-05 -5.32322e-05 -7.22901e-05 -6.99414e-05 -4.17004e-05 -1.47316e-05 -1.23845e-05 -2.66736e-05 -3.41285e-05 -2.15812e-05 -3.82755e-06 -7.54551e-07 -6.36994e-06 -7.54941e-06 -3.84195e-06 -3.84452e-07 -6.35076e-08 -9.79308e-07 -7.14182e-07 -7.16536e-08 9.38314e-09 -4.65152e-08 -3.76307e-08 0 0 
0 0 -3.41311e-08 -4.29112e-08 6.3452e-09 -1.2071e-07 -8.35745e-07 -8.0277e-07 4.52064e-07 -1.48753e-06 -6.71664e-06 -7.03318e-06 -1.66177e-06 -3.45087e-07 -1.53286e-05 -3.98495e-05 -3.67083e-05 -6.75375e-06 -4.21799e-06 -4.62555e-05 -9.61337e-05 -0.000104295 -6.21449e-05 -2.98319e-05 -5.48741e-05 -0.000117746 -0.000166445 -0.000160552 -0.000113012 -7.73192e-05 -9.04415e-05 -0.000148322 -0.000209712 -0.000230606 -0.000202581 -0.000152213 -0.000121214 -0.000136189 -0.000189803 -0.000250691 -0.000283164 -0.000269889 -0.000220542 -0.000162335 -0.00012519 -0.000124253 -0.000153764 -0.000192267 -0.000212616 -0.000195865 -0.000137399 -4.75755e-05 5.4152e-05 0.000147936 0.000220069 0.000267385 0.000295833 0.000317434 0.000344806 0.000386689 0.000445549 0.000516543 0.000589692 0.000652102 0.00069151 0.000698547 0.000668342 0.00060112 0.000501372 0.000377077 0.000237942 9.43561e-05 -4.39842e-05 -0.000168847 -0.000274491 -0.000357407 -0.000415525 -0.00044837 -0.00045722 -0.000444763 -0.000413473 -0.000365138 -0.000301306 -0.000225577 -0.000144544 -6.72198e-05 -1.80288e-06 4.66406e-05 7.74097e-05 9.31636e-05 9.83883e-05 9.72335e-05 9.29228e-05 8.74413e-05 8.18893e-05 7.67957e-05 7.24269e-05 6.88327e-05 6.62284e-05 6.48681e-05 6.46376e-05 6.51247e-05 6.54735e-05 6.37878e-05 5.7199e-05 4.38943e-05 2.63472e-05 1.37886e-05 2.09847e-05 5.98425e-05 0.000126677 0.00019466 0.000222894 0.000181428 7.5768e-05 -5.43851e-05 -0.00016534 -0.000242829 -0.000303724 -0.000366549 -0.000426002 -0.000462354 -0.000467846 -0.000452317 -0.000422062 -0.000368721 -0.00028415 -0.000174692 -5.13732e-05 8.31472e-05 0.000227029 0.000368003 0.000490681 0.000588029 0.000656029 0.000687423 0.000679224 0.000639449 0.000578986 0.000506893 0.000435698 0.00037817 0.000338294 0.000311431 0.000290503 0.000263894 0.000217584 0.00014577 5.34696e-05 -4.6764e-05 -0.000136163 -0.000193687 -0.000208989 -0.000188401 -0.000150405 -0.000120792 -0.000121478 -0.000158526 -0.000216567 -0.000265566 -0.000278335 -0.000245504 -0.000184892 -0.00013181 -0.000116967 -0.0001477 -0.000197786 -0.000225921 -0.0002056 -0.000144765 -8.70046e-05 -7.35726e-05 -0.000108815 -0.000156226 -0.000162337 -0.000114664 -5.28419e-05 -2.82626e-05 -6.03027e-05 -0.000102088 -9.41791e-05 -4.50239e-05 -3.60141e-06 -6.21009e-06 -3.59023e-05 -3.90846e-05 -1.49194e-05 -1.72207e-07 -1.52191e-06 -6.8728e-06 -6.58835e-06 -1.42966e-06 4.73483e-07 -7.93251e-07 -8.20846e-07 -7.85475e-08 -1.28356e-08 -3.50913e-08 0 0 
0 0 -3.97571e-08 -1.78174e-08 -6.56841e-08 -8.35745e-07 -8.02999e-07 7.04784e-07 -2.28493e-06 -8.70196e-06 -4.68869e-06 2.55054e-06 -7.12252e-06 -2.97288e-05 -4.63694e-05 -2.40372e-05 1.38681e-05 -2.48513e-05 -0.000112709 -0.00013973 -8.81036e-05 -1.85888e-05 -3.34221e-05 -0.000146841 -0.000237486 -0.000227859 -0.000144192 -7.47362e-05 -0.000104681 -0.000214466 -0.000314527 -0.000334173 -0.000264012 -0.000174016 -0.000145059 -0.000204845 -0.000320583 -0.000416742 -0.00043667 -0.000376503 -0.000279544 -0.000211318 -0.000212811 -0.000282891 -0.000382437 -0.000455305 -0.000462067 -0.000393161 -0.000272616 -0.000142518 -4.14805e-05 8.9315e-06 1.41386e-05 -7.39363e-07 -1.25019e-06 4.24958e-05 0.000145642 0.000305997 0.000503741 0.000711258 0.000898667 0.00104135 0.0011248 0.00114542 0.00110936 0.00102818 0.000916594 0.000788189 0.000654376 0.000522594 0.000396352 0.00027679 0.000163652 5.59378e-05 -4.76712e-05 -0.000146875 -0.000240987 -0.000327062 -0.000401803 -0.000462443 -0.000506966 -0.000532187 -0.00053334 -0.000506904 -0.000454492 -0.00038532 -0.000313704 -0.000253529 -0.000212164 -0.000191123 -0.000185854 -0.000190209 -0.000198084 -0.00020632 -0.000213022 -0.000217736 -0.000220523 -0.000222278 -0.000223203 -0.000223595 -0.000223636 -0.000224713 -0.000229946 -0.000244082 -0.000270465 -0.000306454 -0.000336919 -0.0003356 -0.000276747 -0.000158446 -1.97949e-05 6.65917e-05 3.92435e-05 -0.000103416 -0.000292003 -0.000438404 -0.000503669 -0.000518571 -0.000531767 -0.000549705 -0.000539651 -0.000484337 -0.000406831 -0.000333685 -0.000259161 -0.000165012 -5.69155e-05 4.65091e-05 0.000145823 0.000257543 0.000381926 0.000506851 0.000632976 0.000767123 0.000899079 0.00100925 0.00108843 0.00112781 0.00111011 0.00102578 0.000884377 0.000700963 0.000494559 0.00029704 0.000139835 3.90553e-05 -4.44676e-06 -1.70852e-06 1.62618e-05 1.16929e-05 -3.75025e-05 -0.0001359 -0.000265634 -0.000387448 -0.00045604 -0.000448932 -0.000376697 -0.000276894 -0.000205639 -0.000203097 -0.000271096 -0.000369026 -0.000430218 -0.000409932 -0.000312923 -0.00019715 -0.000138241 -0.000168357 -0.000258705 -0.000328289 -0.000308071 -0.000208148 -9.92124e-05 -7.02664e-05 -0.000139536 -0.000222609 -0.000232562 -0.000143423 -3.1681e-05 -1.72013e-05 -8.60254e-05 -0.000137188 -0.000110631 -2.39357e-05 1.42211e-05 -2.33518e-05 -4.5509e-05 -2.91249e-05 -6.84461e-06 2.65264e-06 -4.54573e-06 -8.5368e-06 -2.23163e-06 7.09889e-07 -7.42211e-07 -8.36052e-07 -2.28214e-07 6.27933e-09 0 0 
0 0 -8.97456e-09 -1.99126e-07 -7.31189e-07 -8.0277e-07 7.04784e-07 -2.707e-06 -9.94796e-06 -1.52957e-06 6.2998e-06 -2.08134e-05 -4.44907e-05 -3.22637e-05 -7.59971e-07 1.19883e-05 -8.50786e-05 -0.000194894 -0.000123726 3.50241e-06 3.90483e-06 -0.000141254 -0.000328337 -0.000335032 -0.000165636 -4.67741e-05 -9.52716e-05 -0.000291039 -0.000469338 -0.000465382 -0.000316842 -0.000163897 -0.000147332 -0.000304914 -0.000516025 -0.000641434 -0.000605464 -0.000444266 -0.000288759 -0.000246874 -0.000355664 -0.00055575 -0.000731414 -0.000793709 -0.000710555 -0.000530763 -0.000344945 -0.000233384 -0.00023854 -0.000336987 -0.000466408 -0.000548465 -0.000523274 -0.000371864 -0.000113076 0.000200496 0.000511123 0.0007692 0.000949021 0.00105184 0.00109766 0.00111958 0.00114594 0.00119829 0.00128136 0.00138597 0.00149133 0.00157115 0.00160051 0.0015594 0.00143846 0.00123688 0.00096492 0.00063872 0.000280704 -8.55031e-05 -0.000438488 -0.000757862 -0.00102703 -0.00123391 -0.00137426 -0.00144695 -0.00145162 -0.0013852 -0.00124997 -0.00105751 -0.000833488 -0.000608532 -0.000409779 -0.000251479 -0.000136261 -5.59572e-05 -1.38079e-07 4.06738e-05 7.20368e-05 9.69854e-05 0.000116983 0.000132813 0.000144457 0.000151004 0.000151646 0.000142337 0.000115161 6.18018e-05 -1.66328e-05 -0.000100939 -0.000150205 -0.000117215 1.41018e-05 0.000191321 0.000294428 0.000201827 -0.000116319 -0.000554 -0.000941652 -0.00117647 -0.00129103 -0.00137853 -0.00146969 -0.0015026 -0.00141997 -0.00124332 -0.00102952 -0.00078312 -0.000471756 -0.000102232 0.000270524 0.000613554 0.000931892 0.00121303 0.00141675 0.00152683 0.00156508 0.00154351 0.00146398 0.00135302 0.00125229 0.00117619 0.00112254 0.0010959 0.001081 0.00103855 0.000934802 0.00075958 0.000506967 0.000196718 -0.000114346 -0.00036746 -0.000517608 -0.000541965 -0.000455422 -0.000325158 -0.000229348 -0.00022373 -0.000334614 -0.000522892 -0.000702298 -0.000782227 -0.000718232 -0.000543139 -0.000344866 -0.000237429 -0.000277964 -0.000432021 -0.000594366 -0.000632452 -0.000508137 -0.000296368 -0.000137298 -0.000153983 -0.000308875 -0.000459143 -0.000463581 -0.000284127 -9.07542e-05 -4.30715e-05 -0.000160704 -0.000328347 -0.000322226 -0.000137783 5.33257e-06 4.66407e-06 -0.000121268 -0.000191746 -8.337e-05 1.24133e-05 -3.09802e-07 -3.15445e-05 -4.37257e-05 -2.0372e-05 6.39243e-06 -1.42888e-06 -9.80044e-06 -2.59964e-06 7.27745e-07 -9.42929e-07 -6.50136e-07 -1.36568e-07 0 0 
0 0 -9.81244e-08 -5.77373e-07 -1.00593e-06 4.52064e-07 -2.28493e-06 -9.94796e-06 -1.1072e-07 7.9234e-06 -3.53275e-05 -5.20464e-05 4.5824e-06 1.06931e-05 -4.71111e-05 -0.000153515 -0.000213166 -1.69156e-05 0.000105875 -0.000133147 -0.000391905 -0.000446409 -0.000233253 4.37644e-05 -4.40239e-05 -0.000390334 -0.000645368 -0.000632974 -0.000341119 -9.16399e-05 -0.000147338 -0.000446335 -0.000791529 -0.000906465 -0.000721583 -0.000422877 -0.000229107 -0.000313305 -0.000629219 -0.000975672 -0.00116451 -0.00108517 -0.000812953 -0.000516278 -0.000360156 -0.000436685 -0.000692048 -0.00100084 -0.00120649 -0.00120458 -0.000988021 -0.000618864 -0.000219774 0.000103029 0.000283862 0.000321541 0.000275241 0.000225709 0.000264344 0.000443256 0.000778574 0.00124156 0.00177017 0.002289 0.00272086 0.00301065 0.0031215 0.00304779 0.00280334 0.00242222 0.00194664 0.00142074 0.000884748 0.000371693 -9.00397e-05 -0.000487461 -0.000809891 -0.00105884 -0.00123376 -0.00133801 -0.00137649 -0.00135965 -0.00129418 -0.001178 -0.00100342 -0.000768044 -0.000487069 -0.000193381 6.75681e-05 0.000266012 0.00038785 0.000442158 0.000446023 0.000423403 0.000389395 0.000354642 0.000322629 0.000297895 0.000279827 0.000268097 0.000256176 0.000232909 0.000185243 0.000109328 2.54007e-05 -5.72958e-06 9.45783e-05 0.000374055 0.00077378 0.00111203 0.001162 0.00082173 0.000214138 -0.000377026 -0.000738257 -0.000883696 -0.000995063 -0.00118353 -0.00137684 -0.0014494 -0.00140112 -0.00132993 -0.00126115 -0.00111539 -0.00084314 -0.000496893 -0.000119785 0.000318488 0.000843726 0.00139211 0.00190163 0.00236512 0.0027592 0.00301053 0.00307301 0.002963 0.00268739 0.00225606 0.00173264 0.00121421 0.00076061 0.000422825 0.000248626 0.000221211 0.000272142 0.000319393 0.000290671 0.000113326 -0.000210436 -0.000602915 -0.000969011 -0.00119028 -0.00119225 -0.000985279 -0.000681788 -0.000426488 -0.000342582 -0.000496753 -0.000795762 -0.00106981 -0.00115004 -0.000959527 -0.000611577 -0.000298821 -0.000217272 -0.000410377 -0.00070742 -0.000891688 -0.00077923 -0.000437999 -0.000139649 -8.17207e-05 -0.000328778 -0.000619958 -0.000632803 -0.000381889 -4.05015e-05 4.58785e-05 -0.000227871 -0.000438665 -0.0003851 -0.000129772 0.000106093 -1.55407e-05 -0.000209714 -0.000150924 -4.58995e-05 1.1067e-05 4.87597e-06 -5.11832e-05 -3.47145e-05 7.95207e-06 4.40905e-09 -9.73865e-06 -2.37025e-06 4.55933e-07 -4.49563e-07 -4.93452e-07 0 0 
0 0 -3.79229e-07 -5.79681e-07 -8.35785e-08 -1.48753e-06 -8.70196e-06 -1.52957e-06 7.9234e-06 -4.15263e-05 -5.37636e-05 4.41975e-05 -8.45008e-07 -0.000154581 -0.000161487 -0.000110198 7.51691e-05 7.28891e-05 -0.000447713 -0.000615151 -0.000234174 6.90967e-05 9.02188e-05 -0.000409614 -0.000930426 -0.000792084 -0.000335432 1.43223e-05 -8.09989e-05 -0.00066714 -0.00113738 -0.00115905 -0.000772221 -0.000263508 -0.000140312 -0.000480747 -0.0010601 -0.00152746 -0.00154478 -0.00117769 -0.000676631 -0.000371189 -0.000485722 -0.000932976 -0.00150383 -0.00189101 -0.00190804 -0.00157755 -0.00103699 -0.000547526 -0.000283996 -0.000325082 -0.000609652 -0.000963236 -0.00121177 -0.00118927 -0.000847143 -0.000213421 0.000604473 0.00145909 0.00222521 0.00279739 0.00315133 0.00329105 0.0032726 0.00316023 0.00301835 0.00289161 0.00279835 0.00274055 0.0026891 0.00261889 0.00249004 0.00228092 0.00197366 0.00156904 0.00108051 0.000524711 -6.6708e-05 -0.000661189 -0.00121844 -0.00171445 -0.00212753 -0.00244532 -0.00263599 -0.00267589 -0.00255298 -0.00230251 -0.00198734 -0.00168318 -0.00143854 -0.00127726 -0.00118881 -0.00115174 -0.0011393 -0.00113525 -0.00113244 -0.00112867 -0.00112628 -0.00113092 -0.00116104 -0.00123771 -0.00137442 -0.00154801 -0.00168115 -0.0016449 -0.00133425 -0.000781858 -0.000227396 -3.39079e-05 -0.000435954 -0.00132003 -0.00224323 -0.00277585 -0.00283384 -0.00269031 -0.00260468 -0.00254435 -0.00228725 -0.00178057 -0.00119535 -0.000675402 -0.000151641 0.000457874 0.00106966 0.0015436 0.00189641 0.00220895 0.00245092 0.00256419 0.00260332 0.00266858 0.00274852 0.00282645 0.00294284 0.00310767 0.00322949 0.00323618 0.00310645 0.00277347 0.00219939 0.00143369 0.000598225 -0.000213722 -0.000851113 -0.00118174 -0.00119465 -0.000949468 -0.000588749 -0.000295369 -0.000261322 -0.000527615 -0.00101469 -0.00156357 -0.00189668 -0.00186597 -0.00147579 -0.000910468 -0.000462644 -0.000347725 -0.000654268 -0.00115466 -0.00152538 -0.00150996 -0.00103891 -0.000459273 -0.000122218 -0.000249536 -0.000761428 -0.00114576 -0.00111949 -0.000650427 -6.87144e-05 2.11984e-05 -0.000326286 -0.000778119 -0.000915533 -0.000402287 9.11412e-05 6.9936e-05 -0.000229731 -0.000606134 -0.000440637 7.3506e-05 7.54945e-05 -0.000107887 -0.000158777 -0.000152126 -2.47904e-07 4.41028e-05 -5.29554e-05 -4.08612e-05 8.05714e-06 -1.53798e-06 -8.68613e-06 -1.03429e-06 -2.13707e-07 -5.02788e-07 0 0 
0 0 -5.42009e-07 -3.57263e-07 -4.22431e-07 -6.71664e-06 -4.68869e-06 6.2998e-06 -3.53275e-05 -5.37636e-05 6.14183e-05 -1.92361e-05 -0.00026046 -8.79844e-05 8.48687e-05 -1.65308e-05 -0.000161543 -0.000676099 -0.000560605 0.000309268 0.000211647 -0.000472451 -0.00101867 -0.0011462 -0.000304142 0.000299488 -9.63302e-05 -0.00084952 -0.001551 -0.00144976 -0.000619072 -3.87986e-05 -4.6935e-05 -0.000779535 -0.00171134 -0.00205259 -0.00174358 -0.000953346 -0.000305517 -0.000317362 -0.000916492 -0.00184876 -0.00252731 -0.00261513 -0.00213553 -0.00132241 -0.000681347 -0.000485935 -0.000840498 -0.00157361 -0.0023079 -0.00275977 -0.00268058 -0.00210002 -0.0011732 -0.000153464 0.000691193 0.00124145 0.00143339 0.001389 0.001254 0.0012137 0.00141346 0.00190832 0.00269717 0.00367135 0.00471142 0.00564889 0.00635765 0.00672421 0.00669835 0.006274 0.0054858 0.00441106 0.00312548 0.0017469 0.00035221 -0.000958404 -0.00213766 -0.0031275 -0.00389942 -0.00442807 -0.00472783 -0.00482031 -0.00471431 -0.00439628 -0.00385084 -0.00311094 -0.00224102 -0.00136593 -0.000583565 2.99658e-05 0.000471825 0.000757448 0.000939246 0.00105114 0.00113108 0.00118299 0.00121603 0.00120403 0.00112247 0.000940478 0.000671159 0.000399658 0.000313925 0.000587623 0.00125211 0.00201259 0.00233455 0.00173455 0.0002254 -0.00162037 -0.00303568 -0.00371401 -0.00396653 -0.00430315 -0.00478913 -0.00506837 -0.0048847 -0.00440084 -0.00387272 -0.00323164 -0.00226219 -0.000985108 0.000344812 0.00165197 0.00300398 0.00434944 0.00542834 0.00615817 0.00658171 0.00665378 0.00627869 0.00553769 0.00462634 0.00361662 0.00262483 0.00183651 0.0013785 0.00118565 0.00121559 0.0013756 0.00143877 0.00123666 0.000696273 -0.000127074 -0.00115014 -0.00207459 -0.00263717 -0.00272277 -0.00228157 -0.00154371 -0.000820175 -0.000473857 -0.000650102 -0.0012827 -0.00210611 -0.00257957 -0.00248958 -0.00182066 -0.00088965 -0.000288583 -0.000277556 -0.000920674 -0.00171588 -0.00203405 -0.00169345 -0.000759112 -2.35436e-05 -1.3475e-05 -0.000602637 -0.00144116 -0.00154282 -0.000836828 -9.10086e-05 0.00029938 -0.000296948 -0.0011287 -0.0010034 -0.000464544 0.000210624 0.000306749 -0.000552793 -0.000666797 -0.000158364 -1.5124e-05 8.48198e-05 -8.62388e-05 -0.000256773 -1.84348e-05 6.10641e-05 -5.28382e-05 -3.47704e-05 6.13364e-06 -4.31785e-06 -6.46682e-06 -1.9311e-06 -1.60282e-07 0 0 
0 0 -3.66898e-07 -1.13263e-06 -3.93839e-06 -7.03318e-06 2.55054e-06 -2.08134e-05 -5.20464e-05 4.41975e-05 -1.92361e-05 -0.000304242 -4.74158e-06 0.000266882 -0.000316918 -0.000481655 -0.000440241 -0.000236833 0.000634074 -0.000172447 -0.00154392 -0.00111567 -0.000376423 0.00040766 0.000327656 -0.00126945 -0.00199987 -0.00153456 -0.000562609 0.000433457 -3.18811e-05 -0.00135036 -0.00233213 -0.00256245 -0.00155332 -0.000383604 2.33847e-05 -0.000493777 -0.0018809 -0.00302533 -0.00334756 -0.00274817 -0.00152192 -0.000615887 -0.00041068 -0.00112297 -0.00240369 -0.00354163 -0.00415032 -0.00385141 -0.00289073 -0.00164017 -0.000561118 -7.29039e-05 -0.000183343 -0.000832123 -0.00160363 -0.00215726 -0.00219087 -0.00152774 -0.000255557 0.00150931 0.00342245 0.00525784 0.00674339 0.00774931 0.00821809 0.0081816 0.00775397 0.00702045 0.00614907 0.0052 0.00428591 0.00342025 0.00264106 0.00193114 0.00128322 0.00069261 0.000126503 -0.000403449 -0.000916811 -0.00137117 -0.00178023 -0.00211323 -0.00239139 -0.00254387 -0.00252449 -0.00225024 -0.00174744 -0.00110208 -0.000476696 1.7691e-05 0.00030817 0.000414051 0.000378405 0.000272708 0.000150334 3.70401e-05 -7.17825e-05 -0.000217929 -0.000442843 -0.000761127 -0.00107885 -0.00117201 -0.000741374 0.000350494 0.00183533 0.0029934 0.00301136 0.00163274 -0.000516581 -0.00226864 -0.00289508 -0.0026452 -0.00238058 -0.00251722 -0.00271082 -0.00242806 -0.00179582 -0.00127326 -0.00100244 -0.000606032 4.79348e-05 0.000712157 0.00119563 0.00174621 0.00252969 0.00336534 0.00415104 0.00502091 0.00603886 0.006933 0.00760727 0.00804381 0.00814358 0.00766486 0.00663608 0.00519911 0.00339605 0.00146041 -0.000285078 -0.00151466 -0.00218991 -0.00215853 -0.00156864 -0.00079312 -0.000154338 -1.87677e-05 -0.00050278 -0.00160584 -0.00285441 -0.00382013 -0.0041361 -0.00350837 -0.0023491 -0.00108145 -0.000359541 -0.000557405 -0.0014884 -0.00271794 -0.00330116 -0.00298023 -0.00183834 -0.00045955 4.41627e-05 -0.000353952 -0.00151491 -0.00253036 -0.00230725 -0.00133582 -2.15863e-05 0.000456117 -0.000534203 -0.00150593 -0.00196782 -0.00124853 0.00032653 0.000405869 -0.000369206 -0.00109938 -0.00152249 -0.00016782 0.000627988 -0.000232699 -0.000433801 -0.000474861 -0.000312083 0.000264871 -4.0481e-06 -0.000300295 -1.83748e-05 4.41259e-05 -5.14982e-05 -2.03762e-05 3.02473e-06 -7.92153e-06 -4.57574e-06 -5.95666e-07 0 0 
0 0 -3.56995e-07 -3.2878e-06 -7.70842e-06 -1.66177e-06 -7.12252e-06 -4.44907e-05 4.5824e-06 -8.45008e-07 -0.00026046 -4.74158e-06 0.000339434 -0.000599071 -0.000713832 0.000267293 2.17402e-05 7.13681e-05 -0.000761764 -0.00214987 -0.000235311 0.00102321 -2.89393e-05 -0.00098824 -0.00252401 -0.0020436 0.000163405 0.000587284 -6.44918e-05 -0.00178387 -0.00333094 -0.00254533 -0.00106821 0.000246676 0.000369229 -0.00138069 -0.0030862 -0.00406453 -0.00358601 -0.00184488 -0.000495021 -4.99236e-06 -0.00101324 -0.00290091 -0.00450997 -0.00532833 -0.00468844 -0.00322759 -0.00159592 -0.000523935 -0.000638382 -0.00162512 -0.00325661 -0.00468326 -0.00540274 -0.00512219 -0.00377487 -0.0018537 0.000360355 0.00225438 0.00363625 0.00435906 0.00450295 0.00436452 0.00414247 0.00418797 0.00456205 0.0054021 0.00655749 0.0079188 0.00924885 0.0103288 0.0110041 0.011099 0.0106253 0.009509 0.0079113 0.00586094 0.00358539 0.00115971 -0.00123022 -0.00349191 -0.0054799 -0.00713814 -0.00844575 -0.00937975 -0.00989642 -0.00987122 -0.00932129 -0.0082969 -0.00706043 -0.00580818 -0.00477985 -0.00400597 -0.0035183 -0.00320085 -0.00303093 -0.00292746 -0.0029651 -0.00314766 -0.00355625 -0.00408308 -0.00451 -0.00438517 -0.00344184 -0.00177357 -0.000256007 -3.66874e-05 -0.00187935 -0.00521419 -0.00849998 -0.0102253 -0.0103081 -0.00979252 -0.00967688 -0.00968429 -0.00897433 -0.00729679 -0.00530753 -0.00348622 -0.00150228 0.000970686 0.0036155 0.00582456 0.00767338 0.00930553 0.0105612 0.0109716 0.0107565 0.0101447 0.00915008 0.00775074 0.00634752 0.00528411 0.00447404 0.00404703 0.00404095 0.00433846 0.00445601 0.00430384 0.00364918 0.00227216 0.000349713 -0.0018198 -0.00371478 -0.00508727 -0.00534646 -0.00459794 -0.00320448 -0.00158421 -0.000588759 -0.000500175 -0.00156556 -0.00315792 -0.00462376 -0.00526047 -0.00442618 -0.00285778 -0.000980239 6.44222e-05 -0.000429203 -0.00180041 -0.00354452 -0.00403437 -0.00304215 -0.0013257 0.000399387 0.0002621 -0.00104785 -0.00252179 -0.00329164 -0.00175083 -5.21159e-05 0.000590584 0.00016503 -0.00201458 -0.00248939 -0.000974183 -2.74953e-05 0.0010111 -0.000232032 -0.00212254 -0.00075093 7.22269e-05 2.30459e-05 0.000265256 -0.000704469 -0.000590798 0.000336553 -4.14207e-06 -0.000256815 -5.0983e-07 4.62296e-06 -4.33428e-05 -7.31496e-06 -2.92559e-06 -5.18945e-06 -2.48023e-06 0 0 