<?xml version="1.0"?>
<VTKFile type="ImageData" version="0.1" byte_order="LittleEndian">
<ImageData WholeExtent="0 199 0 199 0 0" Origin="0 0 0" Spacing="15 15 0">
<Piece Extent="0 199 0 199 0 0">
<PointData Scalars="Amplitude">
<DataArray type="Float32" Name="Amplitude" format="ascii">
0 0 0 0 0 0 0 0 0 0 0 0 0 0 0 0 0 0 0 0 0 0 0 0 0 0 0 0 0 0 0 0 0 0 0 0 0 0 0 0 0 0 0 0 0 0 0 0 0 0 0 0 0 0 0 0 0 0 0 0 0 0 0 0 0 0 0 0 0 0 0 0 0 0 0 0 0 0 0 0 0 0 0 0 0 0 0 0 0 0 0 0 0 0 0 0 0 0 0 0 0 0 0 0 0 0 0 0 0 0 0 0 0 0 0 0 0 0 0 0 0 0 0 0 0 0 0 0 0 0 0 0 0 0 0 0 0 0 0 0 0 0 0 0 0 0 0 0 0 0 0 0 0 0 0 0 0 0 0 0 0 0 0 0 0 0 0 0 0 0 0 0 0 0 0 0 0 0 0 0 0 0 0 0 0 0 0 0 0 0 0 0 0 0 0 0 0 0 0 0 
0 0 0 0 0 0 0 0 0 0 0 0 0 0 0 0 0 0 0 0 0 0 0 0 0 0 0 0 0 0 0 0 0 0 0 0 0 0 0 0 0 0 0 0 0 0 0 0 0 0 0 0 0 0 0 0 0 0 0 0 0 0 0 0 0 0 0 0 0 0 0 0 0 0 0 0 0 0 0 0 0 0 0 0 0 0 0 0 0 0 0 0 0 0 0 0 0 0 0 0 0 0 0 0 0 0 0 0 0 0 0 0 0 0 0 0 0 0 0 0 0 0 0 0 0 0 0 0 0 0 0 0 0 0 0 0 0 0 0 0 0 0 0 0 0 0 0 0 0 0 0 0 0 0 0 0 0 0 0 0 0 0 0 0 0 0 0 0 0 0 0 0 0 0 0 0 0 0 0 0 0 0 0 0 0 0 0 0 0 0 0 0 0 0 0 0 0 0 0 0 
0 0 3.44093e-14 -1.53559e-13 -1.31025e-12 -1.23725e-11 -4.94916e-11 -3.10528e-11 8.43634e-10 5.7298e-09 1.97735e-08 2.81741e-08 -1.02178e-07 -8.53791e-07 -3.23557e-06 -7.88288e-06 -1.06569e-05 8.16897e-06 0.000100336 0.000360624 0.000909473 0.00182524 0.00303302 0.00420791 0.0047844 0.00413494 0.0018794 -0.00182332 -0.00614584 -0.00976684 -0.0113595 -0.0101934 -0.00653861 -0.00162312 0.00287184 0.00554092 0.0058367 0.00421919 0.00182626 -0.00012786 -0.000901424 -0.000464681 0.000634573 0.00164884 0.0020263 0.00163348 0.000736194 -0.000201362 -0.00076775 -0.000780662 -0.00032641 0.000324957 0.000865094 0.00107935 0.000914603 0.000470615 -6.42591e-05 -0.000496458 -0.00069513 -0.000624545 -0.000338499 5.24331e-05 0.000423923 0.000675627 0.000753905 0.00065692 0.000425178 0.000123696 -0.000177485 -0.000419383 -0.00056395 -0.00059717 -0.000526622 -0.000375514 -0.000175411 4.06723e-05 0.000243585 0.000411327 0.000530365 0.000595376 0.000607889 0.000574397 0.000504373 0.000408488 0.000297217 0.000179855 6.39448e-05 -4.49328e-05 -0.000143066 -0.000228385 -0.000300178 -0.00035878 -0.000405242 -0.00044103 -0.000467787 -0.000487168 -0.000500717 -0.000509784 -0.00051547 -0.000518572 -0.000519556 -0.000518572 -0.00051547 -0.000509784 -0.000500717 -0.000487168 -0.000467787 -0.00044103 -0.000405242 -0.00035878 -0.000300178 -0.000228385 -0.000143066 -4.49328e-05 6.39448e-05 0.000179855 0.000297217 0.000408489 0.000504374 0.000574398 0.00060789 0.000595376 0.000530362 0.000411322 0.000243582 4.06714e-05 -0.00017541 -0.00037551 -0.000526615 -0.000597165 -0.000563946 -0.000419384 -0.000177488 0.000123697 0.000425183 0.000656921 0.000753895 0.00067561 0.000423898 5.24038e-05 -0.000338525 -0.000624558 -0.000695131 -0.000496453 -6.42491e-05 0.000470631 0.000914622 0.00107938 0.000865114 0.000324974 -0.000326405 -0.000780678 -0.000767779 -0.000201404 0.000736152 0.00163343 0.00202623 0.00164877 0.00063452 -0.000464695 -0.000901371 -0.000127729 0.00182644 0.00421919 0.00583575 0.00553749 0.00286329 -0.00164045 -0.00656838 -0.0102376 -0.0114161 -0.0098283 -0.00619912 -0.00185328 0.00182547 0.00406953 0.00472237 0.00415881 0.00299995 0.00180627 0.00090036 0.000357109 9.93748e-05 8.08634e-06 -1.0563e-05 -7.81328e-06 -3.20717e-06 -8.46313e-07 -1.01259e-07 2.79495e-08 1.96104e-08 5.68233e-09 8.36579e-10 -3.08354e-11 -4.91394e-11 -1.26771e-11 -2.93098e-12 -2.54905e-13 0 0 
0 0 -1.53559e-13 -2.90025e-12 -1.36591e-11 -6.63544e-11 -1.03501e-10 8.4255e-10 7.37257e-09 2.94299e-08 5.42181e-08 -1.09438e-07 -1.25885e-06 -5.28696e-06 -1.39558e-05 -2.0988e-05 9.83968e-06 0.000182074 0.000699065 0.00183963 0.00381679 0.00651796 0.00925065 0.0107236 0.00944637 0.00448494 -0.00379174 -0.0134651 -0.0215264 -0.0250303 -0.0224667 -0.0145993 -0.00423765 0.00500593 0.0103373 0.0109203 0.007974 0.00387593 0.000851344 -2.33966e-05 0.000945499 0.00256942 0.00360475 0.00341541 0.00217142 0.00058897 -0.000550347 -0.000809275 -0.000247262 0.000699839 0.00149315 0.00175533 0.00140827 0.000652003 -0.000169692 -0.000734955 -0.000866497 -0.000573188 -1.39402e-05 0.000584522 0.00101602 0.00115768 0.000992934 0.000596723 9.73093e-05 -0.000368498 -0.000692439 -0.000816092 -0.000734913 -0.00048861 -0.000143808 0.000224872 0.000550846 0.000786047 0.000905182 0.000904872 0.000799198 0.000613653 0.000378869 0.000125291 -0.000120705 -0.000338996 -0.000516418 -0.000646452 -0.000728172 -0.00076488 -0.000762703 -0.00072923 -0.000672452 -0.000600047 -0.000518854 -0.000434614 -0.00035195 -0.000274345 -0.0002043 -0.000143465 -9.29492e-05 -5.33615e-05 -2.50059e-05 -7.99244e-06 -2.31457e-06 -7.99244e-06 -2.50059e-05 -5.33615e-05 -9.29492e-05 -0.000143465 -0.0002043 -0.000274345 -0.00035195 -0.000434614 -0.000518854 -0.000600047 -0.000672452 -0.00072923 -0.000762703 -0.00076488 -0.000728172 -0.000646451 -0.000516416 -0.000338996 -0.000120704 0.000125291 0.000378867 0.000613649 0.000799199 0.000904875 0.000905189 0.000786056 0.00055086 0.000224879 -0.000143807 -0.00048861 -0.000734906 -0.000816079 -0.000692436 -0.000368516 9.72695e-05 0.000596668 0.000992867 0.00115762 0.00101597 0.000584506 -1.39377e-05 -0.000573186 -0.000866488 -0.000734938 -0.000169666 0.000652033 0.00140828 0.0017553 0.00149309 0.000699746 -0.000247383 -0.000809404 -0.000550478 0.000588809 0.00217125 0.00341526 0.00360466 0.00256946 0.000945706 -2.3076e-05 0.000851297 0.00387401 0.00796684 0.0109021 0.0103003 0.00494214 -0.00433197 -0.0147188 -0.0225925 -0.0251304 -0.0215627 -0.0133978 -0.00381083 0.00439179 0.00931709 0.0105963 0.00914922 0.00645018 0.00377862 0.00182178 0.000692423 0.000180364 9.73608e-06 -2.08063e-05 -1.38345e-05 -5.24118e-06 -1.24794e-06 -1.08445e-07 5.37831e-08 2.91888e-08 7.31192e-09 8.35481e-10 -1.03199e-10 -6.83019e-11 -1.98478e-11 -3.06414e-12 0 0 
0 0 -1.31025e-12 -1.36591e-11 -5.59743e-11 -1.94736e-10 6.10535e-11 4.65583e-09 2.74258e-08 8.23855e-08 5.25214e-08 -8.20368e-07 -4.94846e-06 -1.64306e-05 -3.3938e-05 -2.38005e-05 0.000137818 0.000737579 0.00223841 0.00511209 0.0094211 0.0142863 0.0176392 0.0167104 0.0093414 -0.00444226 -0.0215967 -0.0366712 -0.043857 -0.0397585 -0.0253614 -0.00591644 0.0114069 0.020889 0.0208012 0.0137599 0.00486085 -0.00118677 -0.0022701 0.000641935 0.00469264 0.00706438 0.00647274 0.00353205 4.37927e-05 -0.00218717 -0.00229219 -0.000609657 0.00170176 0.00337201 0.00363924 0.0025093 0.000616412 -0.00116374 -0.00212544 -0.00199129 -0.000947078 0.000508993 0.00180259 0.00249783 0.00241987 0.0016648 0.000521322 -0.000650179 -0.00153311 -0.00193257 -0.001803 -0.00123097 -0.000389386 0.000518138 0.00130691 0.00184445 0.00206522 0.00196843 0.00160422 0.00105403 0.000410857 -0.000236992 -0.000817288 -0.0012797 -0.00159698 -0.00176248 -0.0017857 -0.00168716 -0.00149332 -0.00123254 -0.000931692 -0.000614108 -0.000298545 9.04877e-07 0.000274728 0.00051748 0.000726856 0.000902879 0.00104718 0.00116234 0.00125116 0.0013166 0.00136127 0.00138723 0.00139576 0.00138723 0.00136127 0.0013166 0.00125116 0.00116234 0.00104718 0.000902879 0.000726856 0.00051748 0.000274728 9.04877e-07 -0.000298545 -0.000614108 -0.000931692 -0.00123254 -0.00149332 -0.00168716 -0.0017857 -0.00176248 -0.00159698 -0.0012797 -0.000817286 -0.000236993 0.000410863 0.00105404 0.00160424 0.00196845 0.00206523 0.00184445 0.00130691 0.000518152 -0.000389349 -0.00123094 -0.00180302 -0.00193263 -0.00153319 -0.000650288 0.000521197 0.00166472 0.00241983 0.00249782 0.0018026 0.000509001 -0.000947075 -0.00199128 -0.00212543 -0.00116375 0.000616351 0.00250916 0.00363905 0.00337177 0.00170149 -0.000609924 -0.00229249 -0.0021875 4.34704e-05 0.00353183 0.00647269 0.00706461 0.00469312 0.000642295 -0.00227174 -0.00119488 0.00483761 0.0137089 0.0207081 0.0207452 0.0112182 -0.00612128 -0.0255286 -0.0398184 -0.0437461 -0.0363672 -0.0214241 -0.00446281 0.00918819 0.0165028 0.0174421 0.0141362 0.00932632 0.00506232 0.00221713 0.000730684 0.000136528 -2.36043e-05 -3.36444e-05 -1.62888e-05 -4.90585e-06 -8.13242e-07 5.21446e-08 8.17145e-08 2.72011e-08 4.61721e-09 5.83627e-11 -2.0105e-10 -6.83577e-11 -1.32462e-11 0 0 
0 0 -1.23725e-11 -6.63544e-11 -1.94736e-10 9.22012e-11 5.0968e-09 3.02923e-08 8.92963e-08 2.17903e-08 -1.19194e-06 -6.797e-06 -2.20166e-05 -4.23005e-05 -8.88559e-06 0.000288214 0.00133331 0.00390275 0.00875446 0.0158615 0.0234606 0.0276989 0.0237361 0.00837404 -0.0170675 -0.0457084 -0.0672412 -0.0724704 -0.058084 -0.0290241 0.00345741 0.0272696 0.0353968 0.0288155 0.0148983 0.00261588 -0.00235975 0.00012782 0.00597641 0.0101746 0.00991148 0.00572537 0.000470104 -0.0028248 -0.00274003 2.52875e-05 0.00342267 0.00540123 0.00498859 0.00260045 -0.000408244 -0.00256371 -0.00299018 -0.00171019 0.000514351 0.00262923 0.00376907 0.00356703 0.00221011 0.000277229 -0.00153051 -0.00264599 -0.00279566 -0.00203176 -0.000659383 0.000894002 0.00221528 0.00300802 0.00314193 0.00265097 0.00169373 0.00049573 -0.000708564 -0.00172179 -0.00241052 -0.00271405 -0.00263773 -0.00223727 -0.00159911 -0.000821368 1.75277e-06 0.000790674 0.00148591 0.00204967 0.00246432 0.00272866 0.00285421 0.00286048 0.00277101 0.00261052 0.00240241 0.00216762 0.00192405 0.00168607 0.00146466 0.00126766 0.00110085 0.00096801 0.000871773 0.000813633 0.000794162 0.000813633 0.000871773 0.00096801 0.00110085 0.00126766 0.00146466 0.00168607 0.00192405 0.00216762 0.00240241 0.00261052 0.00277101 0.00286048 0.00285421 0.00272866 0.00246432 0.00204967 0.00148591 0.000790676 1.74347e-06 -0.000821374 -0.00159911 -0.00223728 -0.00263773 -0.00271404 -0.0024105 -0.00172179 -0.000708564 0.000495737 0.00169374 0.00265105 0.003142 0.003008 0.0022152 0.000893873 -0.000659541 -0.00203194 -0.00279581 -0.00264605 -0.00153053 0.000277218 0.0022101 0.00356699 0.003769 0.00262911 0.000514169 -0.00171046 -0.00299053 -0.00256411 -0.000408621 0.00260006 0.00498817 0.00540085 0.00342225 2.49542e-05 -0.00274024 -0.00282472 0.00047056 0.00572623 0.00991167 0.0101706 0.00595953 8.26291e-05 -0.00245474 0.00245001 0.0146531 0.0285124 0.0350975 0.0270729 0.00347597 -0.0287046 -0.0574464 -0.0715846 -0.0664654 -0.0452592 -0.0169558 0.00822861 0.0234579 0.0274048 0.0232246 0.0157076 0.00867177 0.00386662 0.00132114 0.000285591 -8.83225e-06 -4.1942e-05 -2.18296e-05 -6.73933e-06 -1.18176e-06 2.16809e-08 8.85763e-08 3.00441e-08 5.04711e-09 8.62682e-11 -1.01724e-10 -5.29728e-11 0 0 
0 0 -4.94916e-11 -1.03501e-10 6.10535e-11 5.0968e-09 3.16855e-08 9.46839e-08 -1.86417e-09 -1.54173e-06 -8.71159e-06 -2.81116e-05 -5.09186e-05 1.6761e-05 0.000511609 0.0022213 0.00642024 0.0143298 0.0257484 0.0373419 0.0420875 0.0315424 0.000992162 -0.045248 -0.0926496 -0.121852 -0.118484 -0.0815118 -0.0250887 0.0279738 0.0579707 0.0582261 0.0371328 0.011524 -0.00384918 -0.00393168 0.00603179 0.0160433 0.0185187 0.0124142 0.00246426 -0.00493993 -0.00600348 -0.00133852 0.00520142 0.00933908 0.00886765 0.00449898 -0.00104019 -0.00479557 -0.00513727 -0.00234279 0.00185969 0.00534007 0.00658954 0.0052691 0.00215163 -0.00137853 -0.00396562 -0.00478073 -0.00372702 -0.00134424 0.00147845 0.00384282 0.00511078 0.00503887 0.00377051 0.00172639 -0.000551777 -0.00255155 -0.00389861 -0.00440666 -0.00407649 -0.003057 -0.00158623 6.87104e-05 0.00166159 0.00299957 0.00395897 0.00448589 0.00458652 0.00431139 0.00373784 0.0029548 0.00204938 0.00109973 0.000168812 -0.000697295 -0.00146879 -0.00212975 -0.00267597 -0.00311239 -0.00344936 -0.00370035 -0.00388028 -0.00400414 -0.00408519 -0.00413527 -0.00416387 -0.00417817 -0.00418252 -0.00417817 -0.00416387 -0.00413527 -0.00408519 -0.00400414 -0.00388028 -0.00370035 -0.00344936 -0.00311239 -0.00267597 -0.00212975 -0.00146879 -0.000697295 0.000168812 0.00109973 0.00204939 0.00295481 0.00373785 0.00431138 0.00458651 0.00448586 0.00395894 0.00299957 0.00166159 6.87452e-05 -0.00158621 -0.00305699 -0.00407649 -0.00440662 -0.00389852 -0.00255144 -0.000551797 0.00172624 0.00377029 0.00503861 0.00511054 0.00384262 0.00147839 -0.00134418 -0.003727 -0.00478088 -0.00396591 -0.00137888 0.00215128 0.00526863 0.00658898 0.00533942 0.00185903 -0.00234328 -0.00513773 -0.00479592 -0.00104043 0.00449876 0.00886749 0.00933905 0.00520171 -0.00133761 -0.00600211 -0.00494021 0.00245562 0.0123812 0.0184339 0.0158704 0.00573905 -0.00434767 -0.0043356 0.0110909 0.0369299 0.0584294 0.0586779 0.0291429 -0.0236464 -0.0800384 -0.116885 -0.120453 -0.0917046 -0.0448522 0.000919395 0.0311916 0.0416609 0.0369801 0.0255063 0.0141979 0.00636214 0.00220143 0.000507047 1.65797e-05 -5.04948e-05 -2.78761e-05 -8.63861e-06 -1.52874e-06 -1.77422e-09 9.39185e-08 3.14267e-08 5.212e-09 9.71052e-10 -2.37648e-11 0 0 
0 0 -3.10528e-11 8.4255e-10 4.65583e-09 3.02923e-08 9.46839e-08 -1.09932e-08 -1.7465e-06 -1.00865e-05 -3.29859e-05 -5.73107e-05 5.03407e-05 0.000779981 0.0033094 0.00958815 0.0214969 0.0385907 0.0551924 0.059459 0.0374897 -0.0173939 -0.0953961 -0.169179 -0.205244 -0.18269 -0.107098 -0.00949896 0.069502 0.101656 0.0852963 0.0429485 0.00491944 -0.00932787 3.14403e-05 0.0181427 0.0284748 0.0239192 0.00926765 -0.00460238 -0.00921695 -0.00359488 0.00654647 0.0136603 0.0133851 0.00661026 -0.00199496 -0.00736049 -0.00695398 -0.00174338 0.00490074 0.00933912 0.00952372 0.00572151 1.0783e-05 -0.00494819 -0.00715653 -0.00599676 -0.0022503 0.00243263 0.00628329 0.00805249 0.00734179 0.00458043 0.000749964 -0.00300001 -0.00570142 -0.00678972 -0.00616901 -0.0041468 -0.00128421 0.00177347 0.00444546 0.00631486 0.00716939 0.00699447 0.00593113 0.00421875 0.00213713 -4.20322e-05 -0.00208949 -0.00383734 -0.00518307 -0.00608527 -0.00655206 -0.00662586 -0.0063726 -0.00586827 -0.00518807 -0.0044024 -0.00357087 -0.002742 -0.00195288 -0.00122997 -0.00059036 -4.37382e-05 0.000404435 0.000752913 0.00100083 0.00114863 0.00119791 0.00114863 0.00100083 0.000752913 0.000404435 -4.37382e-05 -0.00059036 -0.00122997 -0.00195288 -0.002742 -0.00357087 -0.0044024 -0.00518807 -0.00586828 -0.0063726 -0.00662586 -0.00655206 -0.00608527 -0.0051831 -0.00383738 -0.00208954 -4.20518e-05 0.00213711 0.00421877 0.00593115 0.00699451 0.00716939 0.00631482 0.00444547 0.00177356 -0.00128408 -0.00414689 -0.00616929 -0.00679009 -0.00570178 -0.00300032 0.000749824 0.00458038 0.00734179 0.00805241 0.00628289 0.00243197 -0.00225106 -0.00599737 -0.00715716 -0.0049489 1.00174e-05 0.00572083 0.00952319 0.00933871 0.00490042 -0.00174357 -0.00695423 -0.00736085 -0.00199507 0.0066104 0.0133862 0.0136621 0.00654521 -0.00361147 -0.0092764 -0.00475119 0.00897147 0.0234301 0.027802 0.0173938 -0.000569837 -0.00948828 0.00545485 0.0442658 0.087224 0.103793 0.0713682 -0.00818504 -0.105262 -0.180383 -0.202984 -0.167475 -0.0945154 -0.0172897 0.0370893 0.0588797 0.0546747 0.0382374 0.0213036 0.00950308 0.00328032 0.000773142 4.98642e-05 -5.68413e-05 -3.27128e-05 -1.0003e-05 -1.73197e-06 -1.08363e-08 9.40952e-08 3.11849e-08 8.53394e-09 1.06584e-09 0 0 
0 0 8.43634e-10 7.37257e-09 2.74258e-08 8.92963e-08 -1.86417e-09 -1.7465e-06 -1.05877e-05 -3.56899e-05 -6.10213e-05 8.29034e-05 0.00104445 0.00444173 0.0130452 0.0296018 0.0534047 0.0756471 0.0777856 0.0382397 -0.0520896 -0.174504 -0.281945 -0.32046 -0.262269 -0.127087 0.0259977 0.131777 0.15554 0.109807 0.0405514 -0.00571767 -0.0099181 0.014449 0.0384661 0.0413055 0.0227718 -0.00130744 -0.0138107 -0.00871986 0.00680423 0.0197905 0.0212282 0.0112675 -0.00251859 -0.0112244 -0.010322 -0.00163296 0.00878965 0.0147724 0.0134096 0.00605816 -0.00305224 -0.0093784 -0.0102725 -0.0058898 0.00134046 0.00811778 0.0117539 0.0111188 0.00680258 0.000608328 -0.00526926 -0.0090302 -0.00975926 -0.00753968 -0.00324755 0.00182936 0.00639628 0.00946813 0.0105386 0.00959146 0.00700501 0.00339802 -0.00053854 -0.00417745 -0.0070457 -0.00886592 -0.00955082 -0.00917167 -0.00790914 -0.00600495 -0.00371492 -0.00127717 0.00111236 0.00330555 0.005206 0.00676439 0.00796921 0.00883824 0.0094081 0.00972921 0.00985439 0.00983562 0.0097215 0.00955521 0.00937228 0.00920121 0.00906325 0.00897429 0.00894378 0.00897429 0.00906325 0.00920121 0.00937228 0.00955521 0.0097215 0.00983562 0.00985439 0.00972921 0.0094081 0.00883824 0.00796921 0.00676439 0.00520602 0.00330553 0.00111237 -0.00127718 -0.00371494 -0.00600495 -0.00790919 -0.00917166 -0.00955081 -0.00886584 -0.00704563 -0.00417743 -0.000538613 0.00339795 0.00700503 0.0095916 0.0105385 0.00946763 0.00639574 0.00182877 -0.00324809 -0.00753995 -0.00975942 -0.00903034 -0.00526963 0.000607479 0.0068013 0.0111177 0.0117534 0.00811746 0.00133982 -0.00589053 -0.0102733 -0.00937895 -0.00305256 0.00605793 0.0134095 0.0147722 0.00878904 -0.00163317 -0.0103215 -0.0112228 -0.00251594 0.0112649 0.0211995 0.0196914 0.00655929 -0.00920007 -0.0145887 -0.00234857 0.0216662 0.0405093 0.038435 0.0155277 -0.00770655 -0.00277339 0.0435071 0.112025 0.156585 0.131768 0.026616 -0.125077 -0.259181 -0.317094 -0.279181 -0.172889 -0.0516623 0.0378416 0.0770525 0.0749564 0.0529268 0.0293406 0.0129314 0.00440328 0.00103542 8.21492e-05 -6.05284e-05 -3.53976e-05 -1.05008e-05 -1.73195e-06 -6.7763e-10 9.26529e-08 3.42207e-08 7.21583e-09 0 0 
0 0 5.7298e-09 2.94299e-08 8.23855e-08 2.17903e-08 -1.54173e-06 -1.00865e-05 -3.56899e-05 -6.22125e-05 0.000103078 0.00124049 0.00539336 0.0162202 0.0375279 0.0684703 0.0965705 0.0948118 0.0314748 -0.105724 -0.28542 -0.432679 -0.465701 -0.350302 -0.130926 0.0908606 0.218343 0.216641 0.126262 0.0270309 -0.0188855 -0.00249325 0.0396504 0.0628775 0.0488633 0.0128378 -0.0155696 -0.0178029 0.00194121 0.0242294 0.0313794 0.0196963 -0.000544594 -0.0146966 -0.0143519 -0.0017817 0.0133161 0.0210689 0.0173871 0.00539554 -0.00749692 -0.0143316 -0.0121945 -0.00305562 0.00797388 0.0155473 0.0165371 0.0110373 0.00180019 -0.00729466 -0.0129117 -0.0133821 -0.00901428 -0.00164405 0.00620907 0.0122268 0.0149188 0.0138807 0.0096973 0.00361363 -0.00288901 -0.00846338 -0.0121566 -0.0135174 -0.0125763 -0.00973287 -0.00561005 -0.000902241 0.00374625 0.00782013 0.0109744 0.0130359 0.0139827 0.013908 0.0129796 0.0113976 0.00937275 0.00710238 0.00474807 0.00244177 0.000278075 -0.00168032 -0.00339965 -0.00486807 -0.00608958 -0.00707656 -0.00784683 -0.00842213 -0.00881838 -0.00904938 -0.00912564 -0.00904938 -0.00881838 -0.00842213 -0.00784683 -0.00707656 -0.00608958 -0.00486807 -0.00339965 -0.00168032 0.000278075 0.00244177 0.00474807 0.00710238 0.00937275 0.0113976 0.0129796 0.013908 0.0139827 0.0130359 0.0109744 0.00782022 0.00374637 -0.000902087 -0.00560999 -0.00973295 -0.0125764 -0.0135175 -0.0121564 -0.0084633 -0.00288948 0.00361287 0.00969661 0.0138799 0.014918 0.0122262 0.00620858 -0.00164477 -0.00901572 -0.0133839 -0.0129129 -0.00729501 0.00180029 0.0110368 0.0165361 0.0155463 0.00797302 -0.00305564 -0.0121946 -0.0143314 -0.00749694 0.00539541 0.0173871 0.0210708 0.0133195 -0.00177676 -0.0143557 -0.0147407 -0.000699334 0.0193175 0.0306418 0.0230507 0.000398728 -0.0193755 -0.0165835 0.0130561 0.0507527 0.066326 0.0438964 0.00138684 -0.0164265 0.0276294 0.125341 0.215029 0.216746 0.0906989 -0.128964 -0.346444 -0.461033 -0.428565 -0.282812 -0.104813 0.0311483 0.0939431 0.0957084 0.0678689 0.0372023 0.0160807 0.00534728 0.00122991 0.000102159 -6.17152e-05 -3.54e-05 -1.00034e-05 -1.5253e-06 2.64625e-08 5.75377e-08 2.46251e-08 0 0 
0 0 1.97735e-08 5.42181e-08 5.25214e-08 -1.19194e-06 -8.71159e-06 -3.29859e-05 -6.10213e-05 0.000103078 0.00131306 0.00593956 0.0184697 0.0439008 0.0815729 0.115366 0.108652 0.0172168 -0.175832 -0.423489 -0.614794 -0.632118 -0.43569 -0.107182 0.193434 0.331724 0.282849 0.132786 0.00459598 -0.0294559 0.0157902 0.0720883 0.0829055 0.0440068 -0.00613483 -0.0270742 -0.00934894 0.0242584 0.0429102 0.033025 0.00530608 -0.0177352 -0.02035 -0.00363323 0.0180772 0.0291228 0.0230393 0.00517683 -0.0125075 -0.0196813 -0.0133631 0.00157151 0.0162494 0.0230469 0.0191981 0.00736334 -0.00646915 -0.0161701 -0.0180954 -0.012172 -0.00134596 0.0100244 0.0179508 0.0201083 0.0163031 0.00815345 -0.00171238 -0.0105669 -0.0163203 -0.0179274 -0.0154411 -0.00977981 -0.00235327 0.00531344 0.0119083 0.0165161 0.0186862 0.0184124 0.0160204 0.0120473 0.00710924 0.00181187 -0.00332986 -0.0079269 -0.0117334 -0.0146276 -0.0165923 -0.0176936 -0.0180441 -0.0177887 -0.017076 -0.0160555 -0.0148562 -0.0135909 -0.0123502 -0.011205 -0.0102093 -0.00940195 -0.00880639 -0.0084426 -0.00832116 -0.0084426 -0.00880639 -0.00940195 -0.0102093 -0.011205 -0.0123502 -0.0135909 -0.0148562 -0.0160555 -0.017076 -0.0177887 -0.0180441 -0.0176936 -0.0165923 -0.0146276 -0.0117334 -0.00792686 -0.00332982 0.00181192 0.00710929 0.0120474 0.0160206 0.0184125 0.0186862 0.016516 0.0119081 0.0053135 -0.00235311 -0.00978021 -0.0154424 -0.0179285 -0.0163213 -0.0105681 -0.00171355 0.00815234 0.0163025 0.0201067 0.0179484 0.0100227 -0.00134627 -0.0121717 -0.0180957 -0.0161713 -0.00646978 0.00736346 0.0191987 0.0230479 0.01625 0.00157156 -0.0133633 -0.0196812 -0.0125051 0.0051814 0.0230456 0.0291172 0.0180119 -0.00386065 -0.0209055 -0.0188124 0.00360068 0.0308301 0.0407483 0.0230082 -0.00873647 -0.0240704 -0.00107413 0.0498473 0.0877917 0.0746451 0.0156965 -0.031388 0.00219423 0.130886 0.28011 0.328888 0.192164 -0.105578 -0.431175 -0.626042 -0.609106 -0.419683 -0.174305 0.0170291 0.10768 0.114356 0.0808678 0.043525 0.0183128 0.0058894 0.00130198 0.00010217 -6.05354e-05 -3.27163e-05 -8.63657e-06 -1.2172e-06 -1.93136e-07 2.87155e-08 0 0 
0 0 2.81741e-08 -1.09438e-07 -8.20368e-07 -6.797e-06 -2.81116e-05 -5.73107e-05 8.29034e-05 0.00124049 0.00593956 0.0192841 0.0474631 0.0905172 0.129523 0.118331 -0.00146579 -0.253763 -0.575238 -0.812649 -0.804734 -0.505977 -0.0472992 0.337214 0.471326 0.35307 0.132467 -0.0184832 -0.0287157 0.0474554 0.106104 0.0898549 0.0227181 -0.0305262 -0.0293013 0.0130888 0.0514572 0.052483 0.0196341 -0.0166083 -0.0278215 -0.00929375 0.0205396 0.0376536 0.0306171 0.00650376 -0.016915 -0.0246103 -0.013435 0.00779868 0.0254188 0.0295162 0.0188384 0.000124084 -0.016592 -0.0234457 -0.0181109 -0.00400889 0.0120974 0.0234536 0.0259941 0.0194414 0.00680459 -0.00724036 -0.0181648 -0.0229927 -0.0208996 -0.0130662 -0.00199255 0.00938898 0.0185065 0.0236587 0.0242198 0.020543 0.0136947 0.00508861 -0.00382816 -0.0118115 -0.0179755 -0.0218368 -0.0232918 -0.0225251 -0.0199254 -0.0159771 -0.011188 -0.00601925 -0.000855671 0.00400145 0.00836801 0.0121305 0.0152525 0.0177458 0.0196674 0.0210944 0.0221148 0.0228097 0.0232593 0.0235353 0.0236915 0.0237686 0.0237916 0.0237686 0.0236915 0.0235353 0.0232593 0.0228097 0.0221148 0.0210944 0.0196674 0.0177458 0.0152525 0.0121305 0.00836801 0.00400145 -0.000855663 -0.00601918 -0.011188 -0.0159771 -0.0199254 -0.0225251 -0.0232918 -0.0218367 -0.0179752 -0.0118113 -0.00382813 0.00508846 0.0136947 0.0205434 0.0242196 0.0236575 0.0185047 0.0093874 -0.00199409 -0.0130685 -0.0209012 -0.0229937 -0.0181666 -0.00724344 0.00680272 0.0194417 0.025995 0.0234543 0.0120971 -0.00400928 -0.0181098 -0.0234445 -0.0165909 0.000124592 0.0188384 0.0295153 0.025419 0.00780104 -0.0134278 -0.0246009 -0.0169198 0.0064172 0.0303047 0.0368836 0.0190454 -0.0116549 -0.0308283 -0.0194958 0.0181188 0.0536354 0.0558937 0.0201471 -0.0215731 -0.0245626 0.0252294 0.0888442 0.103042 0.0443112 -0.03066 -0.0192618 0.130955 0.349701 0.467126 0.334496 -0.0464013 -0.500998 -0.797269 -0.805323 -0.570152 -0.251567 -0.00148032 0.117293 0.128406 0.0897452 0.0470616 0.0191221 0.00588989 0.00123012 8.21806e-05 -5.6851e-05 -2.79142e-05 -7.00458e-06 -1.85891e-06 -1.8689e-07 0 0 
0 0 -1.02178e-07 -1.25885e-06 -4.94846e-06 -2.20166e-05 -5.09186e-05 5.03407e-05 0.00104445 0.00539336 0.0184697 0.0474631 0.0936956 0.137116 0.123829 -0.0191035 -0.325875 -0.719942 -1.00379 -0.965867 -0.552047 0.0495425 0.517724 0.631614 0.425533 0.130348 -0.0317403 -0.00719966 0.0951095 0.138142 0.0806884 -0.0119303 -0.0531695 -0.0190501 0.0429736 0.0704938 0.0436145 -0.00639529 -0.0337163 -0.019148 0.0189179 0.0459208 0.041027 0.0107924 -0.0201879 -0.0299191 -0.0139989 0.0141374 0.0347416 0.0352385 0.016799 -0.00843569 -0.025917 -0.0269909 -0.0125305 0.00895506 0.0266198 0.0326506 0.0252515 0.00847972 -0.0103655 -0.0240779 -0.0282026 -0.0221373 -0.00870822 0.00734847 0.0211642 0.0291536 0.0297551 0.0234666 0.0123264 -0.000850761 -0.0132684 -0.0226952 -0.027821 -0.0282926 -0.0245478 -0.0176019 -0.00871587 0.000818931 0.00990027 0.0176838 0.0236525 0.0275796 0.0294907 0.029589 0.0281752 0.0256202 0.0222759 0.0184824 0.0145154 0.0106035 0.00691008 0.00355633 0.000610207 -0.00188741 -0.00392323 -0.00549192 -0.006609 -0.00727691 -0.00749559 -0.00727691 -0.006609 -0.00549192 -0.00392323 -0.00188741 0.000610207 0.00355633 0.00691008 0.0106035 0.0145154 0.0184824 0.0222759 0.0256202 0.0281752 0.0295891 0.0294907 0.0275796 0.0236525 0.0176836 0.00990018 0.000819268 -0.00871551 -0.0176019 -0.024548 -0.0282928 -0.0278209 -0.0226952 -0.0132698 -0.000853244 0.012324 0.0234639 0.0297522 0.0291508 0.021163 0.00734666 -0.00871231 -0.0221398 -0.0282015 -0.0240759 -0.0103641 0.00848033 0.0252515 0.0326522 0.026621 0.00895493 -0.012531 -0.0269924 -0.0259186 -0.00843551 0.0168034 0.0352502 0.0347583 0.0141358 -0.0141061 -0.0303228 -0.0211991 0.00881481 0.0378978 0.0419486 0.0151616 -0.0209823 -0.031915 -0.000243233 0.0530262 0.0803849 0.0500909 -0.0166953 -0.0552428 -0.0161637 0.0768995 0.136159 0.0946023 -0.00740095 -0.0315416 0.129064 0.421621 0.62599 0.513311 0.0494217 -0.546851 -0.957172 -0.994919 -0.71367 -0.323075 -0.0189581 0.122761 0.135948 0.092905 0.0470657 0.0183159 0.00534867 0.0010358 4.98791e-05 -5.07254e-05 -2.28328e-05 -7.63591e-06 -1.37043e-06 0 0 
0 0 -8.53791e-07 -5.28696e-06 -1.64306e-05 -4.23005e-05 1.6761e-05 0.000779981 0.00444173 0.0162202 0.0439008 0.0905172 0.137116 0.125581 -0.0298161 -0.377088 -0.834021 -1.16332 -1.09936 -0.57218 0.173051 0.720662 0.802213 0.497931 0.13121 -0.0279555 0.039306 0.158346 0.167759 0.0612136 -0.0477655 -0.0636349 0.00324688 0.0686734 0.0685962 0.0138528 -0.0354897 -0.0345342 0.00900436 0.0509531 0.0548063 0.0209437 -0.0197388 -0.0350639 -0.0163932 0.0186698 0.0429971 0.0402559 0.0142614 -0.0165638 -0.0328778 -0.0262809 -0.0025393 0.023769 0.038354 0.0345737 0.0155034 -0.00896904 -0.0276795 -0.0332275 -0.0244317 -0.00578863 0.0150919 0.0307783 0.0365019 0.0312588 0.0174523 -0.000399495 -0.0173212 -0.0292618 -0.0339522 -0.0310697 -0.0219235 -0.00885886 0.00540841 0.0184176 0.0283537 0.0341576 0.0355581 0.0329149 0.0270473 0.0189676 0.00973456 0.000265083 -0.00868297 -0.0165697 -0.0230898 -0.0281092 -0.0316688 -0.0338931 -0.0349876 -0.0351767 -0.0346988 -0.0337722 -0.0325997 -0.0313512 -0.0301595 -0.0291348 -0.0283525 -0.027861 -0.0276941 -0.027861 -0.0283525 -0.0291348 -0.0301595 -0.0313512 -0.0325997 -0.0337722 -0.0346988 -0.0351767 -0.0349876 -0.0338931 -0.0316688 -0.0281092 -0.0230898 -0.0165697 -0.00868302 0.000265069 0.00973466 0.0189677 0.0270476 0.0329155 0.0355584 0.0341576 0.0283535 0.0184173 0.00540822 -0.00885978 -0.0219266 -0.0310736 -0.033956 -0.0292654 -0.0173246 -0.000401364 0.0174504 0.031255 0.0364988 0.0307796 0.0150945 -0.00578719 -0.0244295 -0.0332267 -0.0276784 -0.0089678 0.0155031 0.0345743 0.0383535 0.0237679 -0.00253932 -0.0262742 -0.0328615 -0.0165385 0.0142625 0.0401292 0.0424994 0.017402 -0.0188987 -0.0390535 -0.024812 0.0161656 0.0525556 0.0534429 0.0170717 -0.0224642 -0.0231768 0.0222293 0.0707465 0.065445 -0.00216217 -0.0679826 -0.0497219 0.0608396 0.16737 0.157166 0.0389487 -0.0276204 0.130134 0.493557 0.795172 0.714421 0.171709 -0.567013 -1.08969 -1.15323 -0.826849 -0.373876 -0.0295733 0.124514 0.135961 0.0897612 0.0435365 0.0160864 0.00440523 0.000773414 1.58179e-05 -4.43033e-05 -1.95673e-05 -5.05186e-06 0 0 
0 0 -3.23557e-06 -1.39558e-05 -3.3938e-05 -8.88559e-06 0.000511609 0.0033094 0.0130452 0.0375279 0.0815729 0.129523 0.123829 -0.0298161 -0.395639 -0.897 -1.26913 -1.19355 -0.57296 0.30219 0.922751 0.968606 0.567352 0.139102 -0.00385328 0.109027 0.232397 0.194599 0.0406921 -0.0696453 -0.0513645 0.0368122 0.082616 0.0428401 -0.0292844 -0.0565402 -0.0175142 0.042932 0.0667286 0.0372619 -0.0130309 -0.0386871 -0.0211988 0.0203146 0.0501857 0.0460147 0.0132517 -0.0228679 -0.0376137 -0.023214 0.00869158 0.0370063 0.0451596 0.0298342 0.000854175 -0.0259481 -0.0375962 -0.0297887 -0.00753524 0.0184087 0.0370812 0.0416575 0.0314414 0.0110855 -0.0118653 -0.03 -0.0383343 -0.0353543 -0.0228224 -0.00471333 0.0142222 0.0297402 0.0389769 0.040741 0.0354585 0.0247376 0.0108055 -0.00400537 -0.017677 -0.028699 -0.0361929 -0.0398613 -0.0399217 -0.0368934 -0.0314896 -0.0244867 -0.0165927 -0.00845485 -0.000542627 0.00677403 0.0132938 0.0189003 0.0235804 0.0273793 0.0303911 0.0326835 0.0343905 0.0355936 0.0363957 0.0368598 0.0370056 0.0368598 0.0363957 0.0355936 0.0343905 0.0326835 0.0303911 0.0273793 0.0235804 0.0189003 0.0132938 0.00677403 -0.000542627 -0.00845485 -0.0165927 -0.0244869 -0.0314897 -0.0368933 -0.0399217 -0.0398611 -0.0361924 -0.0286981 -0.0176767 -0.00400549 0.0108053 0.024737 0.0354574 0.0407382 0.038972 0.0297343 0.0142171 -0.00471716 -0.0228254 -0.0353571 -0.0383374 -0.0300038 -0.0118651 0.011089 0.0314446 0.0416618 0.0370839 0.0184095 -0.0075337 -0.0297896 -0.0375949 -0.0259471 0.000850869 0.0298338 0.0451669 0.0370231 0.0087199 -0.0232095 -0.037758 -0.0234463 0.0117402 0.0429847 0.0453006 0.0140446 -0.0271432 -0.0415001 -0.00992118 0.0473147 0.0816421 0.0578779 -0.00774611 -0.0545689 -0.033671 0.0362837 0.077759 0.034879 -0.0517133 -0.0702977 0.0390721 0.192648 0.230102 0.108073 -0.00360526 0.138162 0.56259 0.960257 0.914778 0.299606 -0.567972 -1.18327 -1.25828 -0.889372 -0.392296 -0.0295701 0.12279 0.128443 0.0808974 0.0372191 0.0129383 0.00328181 0.000505573 -1.11067e-05 -2.52322e-05 -1.17961e-05 0 0 