<?xml version="1.0"?>
<VTKFile type="ImageData" version="0.1" byte_order="LittleEndian">
<ImageData WholeExtent="0 199 0 199 0 0" Origin="0 0 0" Spacing="15 15 0">
<Piece Extent="0 199 0 199 0 0">
<PointData Scalars="Amplitude">
<DataArray type="Float32" Name="Amplitude" format="ascii">
0 0 0 0 0 0 0 0 0 0 0 0 0 0 0 0 0 0 0 0 0 0 0 0 0 0 0 0 0 0 0 0 0 0 0 0 0 0 0 0 0 0 0 0 0 0 0 0 0 0 0 0 0 0 0 0 0 0 0 0 0 0 0 0 0 0 0 0 0 0 0 0 0 0 0 0 0 0 0 0 0 0 0 0 0 0 0 0 0 0 0 0 0 0 0 0 0 0 0 0 0 0 0 0 0 0 0 0 0 0 0 0 0 0 0 0 0 0 0 0 0 0 0 0 0 0 0 0 0 0 0 0 0 0 0 0 0 0 0 0 0 0 0 0 0 0 0 0 0 0 0 0 0 0 0 0 0 0 0 0 0 0 0 0 0 0 0 0 0 0 0 0 0 0 0 0 0 0 0 0 0 0 0 0 0 0 0 0 0 0 0 0 0 0 0 0 0 0 0 0 
0 0 0 0 0 0 0 0 0 0 0 0 0 0 0 0 0 0 0 0 0 0 0 0 0 0 0 0 0 0 0 0 0 0 0 0 0 0 0 0 0 0 0 0 0 0 0 0 0 0 0 0 0 0 0 0 0 0 0 0 0 0 0 0 0 0 0 0 0 0 0 0 0 0 0 0 0 0 0 0 0 0 0 0 0 0 0 0 0 0 0 0 0 0 0 0 0 0 0 0 0 0 0 0 0 0 0 0 0 0 0 0 0 0 0 0 0 0 0 0 0 0 0 0 0 0 0 0 0 0 0 0 0 0 0 0 0 0 0 0 0 0 0 0 0 0 0 0 0 0 0 0 0 0 0 0 0 0 0 0 0 0 0 0 0 0 0 0 0 0 0 0 0 0 0 0 0 0 0 0 0 0 0 0 0 0 0 0 0 0 0 0 0 0 0 0 0 0 0 0 
0 0 -4.05939e-10 -4.59203e-10 -8.02287e-11 -3.27664e-09 -1.0219e-08 -1.27996e-08 -2.52159e-08 -2.11725e-08 8.44319e-09 -1.50166e-07 -3.29863e-07 -1.91162e-07 -1.50493e-07 -3.87134e-08 -2.79188e-07 -1.47514e-06 -1.76722e-06 -1.41626e-06 -9.75173e-07 -3.77059e-07 -1.56468e-06 -3.10069e-06 -3.86563e-06 -4.01501e-06 -2.78509e-06 -2.03985e-06 -2.3695e-06 -3.44428e-06 -5.28953e-06 -6.20558e-06 -6.17488e-06 -5.41979e-06 -4.37191e-06 -4.37955e-06 -5.22812e-06 -6.95439e-06 -8.81258e-06 -9.89709e-06 -1.02598e-05 -9.6695e-06 -8.98442e-06 -8.69921e-06 -9.20291e-06 -1.07352e-05 -1.26977e-05 -1.48675e-05 -1.65233e-05 -1.74948e-05 -1.77612e-05 -1.7454e-05 -1.71463e-05 -1.70318e-05 -1.75878e-05 -1.87425e-05 -2.04619e-05 -2.24624e-05 -2.43611e-05 -2.59569e-05 -2.68805e-05 -2.71536e-05 -2.66239e-05 -2.54756e-05 -2.37596e-05 -2.16589e-05 -1.92998e-05 -1.67063e-05 -1.39375e-05 -1.08357e-05 -7.38683e-06 -3.35092e-06 1.28722e-06 6.71506e-06 1.28949e-05 1.98428e-05 2.74047e-05 3.54017e-05 4.35557e-05 5.14836e-05 5.87677e-05 6.48051e-05 6.90364e-05 7.08387e-05 7.00465e-05 6.69455e-05 6.26404e-05 5.83789e-05 5.4935e-05 5.14101e-05 4.54588e-05 3.434e-05 1.71943e-05 -4.09714e-06 -2.5754e-05 -4.47853e-05 -6.03673e-05 -7.32445e-05 -8.35313e-05 -9.02058e-05 -9.2204e-05 -8.97746e-05 -8.37633e-05 -7.44901e-05 -6.17168e-05 -4.60386e-05 -2.89261e-05 -1.17958e-05 4.78614e-06 2.02753e-05 3.40173e-05 4.56123e-05 5.53229e-05 6.312e-05 6.87156e-05 7.1904e-05 7.29718e-05 7.19133e-05 6.87867e-05 6.38705e-05 5.77271e-05 5.05632e-05 4.2742e-05 3.47475e-05 2.69475e-05 1.94948e-05 1.26383e-05 6.61777e-06 1.31594e-06 -3.24672e-06 -7.17005e-06 -1.0538e-05 -1.36459e-05 -1.64154e-05 -1.90015e-05 -2.13765e-05 -2.344e-05 -2.5072e-05 -2.61825e-05 -2.66968e-05 -2.64042e-05 -2.54934e-05 -2.38937e-05 -2.19632e-05 -1.99699e-05 -1.82697e-05 -1.71248e-05 -1.65953e-05 -1.67174e-05 -1.70307e-05 -1.73784e-05 -1.71317e-05 -1.61605e-05 -1.45304e-05 -1.23832e-05 -1.04446e-05 -8.94692e-06 -8.45219e-06 -8.75128e-06 -9.46713e-06 -1.00794e-05 -9.74534e-06 -8.67861e-06 -6.82037e-06 -5.1095e-06 -4.2809e-06 -4.29614e-06 -5.36901e-06 -6.12626e-06 -6.15344e-06 -5.23437e-06 -3.38806e-06 -2.3267e-06 -2.00409e-06 -2.7511e-06 -3.97448e-06 -3.83479e-06 -3.08355e-06 -1.56919e-06 -3.95886e-07 -9.82821e-07 -1.4152e-06 -1.75823e-06 -1.46678e-06 -2.83814e-07 -4.44587e-08 -1.53203e-07 -1.92195e-07 -3.28023e-07 -1.49646e-07 7.49297e-09 -2.13683e-08 -2.51325e-08 -1.28946e-08 -1.00837e-08 -2.93077e-09 -7.68122e-10 -3.50749e-10 0 0 
0 0 -4.59203e-10 -1.02423e-09 -4.25054e-09 -1.63457e-08 -1.27624e-08 -1.18467e-08 -5.13945e-08 -6.65556e-08 -2.52346e-07 -4.71548e-07 4.03698e-08 6.09258e-08 -8.68239e-07 -1.46539e-06 -2.9425e-06 -2.34876e-06 -1.8143e-08 -1.13412e-06 -2.74694e-06 -5.97874e-06 -8.5675e-06 -6.18188e-06 -4.39044e-06 -3.17781e-06 -4.36288e-06 -8.9744e-06 -1.15849e-05 -1.27688e-05 -1.12196e-05 -8.10198e-06 -7.55233e-06 -8.63581e-06 -1.26122e-05 -1.70116e-05 -1.9359e-05 -2.00509e-05 -1.79618e-05 -1.60434e-05 -1.53563e-05 -1.67958e-05 -2.09888e-05 -2.56586e-05 -3.04118e-05 -3.31608e-05 -3.38848e-05 -3.31921e-05 -3.16588e-05 -3.13029e-05 -3.21641e-05 -3.5299e-05 -3.99023e-05 -4.53118e-05 -5.0699e-05 -5.47477e-05 -5.75046e-05 -5.82565e-05 -5.78499e-05 -5.64136e-05 -5.48469e-05 -5.36007e-05 -5.28548e-05 -5.2903e-05 -5.31111e-05 -5.3502e-05 -5.31111e-05 -5.17543e-05 -4.85594e-05 -4.33318e-05 -3.56075e-05 -2.52272e-05 -1.22509e-05 3.36604e-06 2.11378e-05 4.095e-05 6.19591e-05 8.38797e-05 0.000105652 0.000126675 0.000145522 0.000161075 0.000171676 0.000176421 0.000175256 0.000169974 0.000163447 0.000158096 0.000153451 0.000144797 0.000125236 8.99684e-05 4.08569e-05 -1.43614e-05 -6.66498e-05 -0.000111803 -0.000150278 -0.000183466 -0.000209397 -0.000224932 -0.000228855 -0.00022313 -0.000208997 -0.000185992 -0.000153559 -0.00011413 -7.09873e-05 -2.66863e-05 1.70727e-05 5.74956e-05 9.25314e-05 0.000121807 0.000145942 0.000164472 0.000176966 0.000183839 0.000185482 0.000181718 0.000172771 0.00015986 0.000143574 0.00012461 0.000103803 8.25369e-05 6.1e-05 4.01874e-05 2.07092e-05 3.30684e-06 -1.21116e-05 -2.48473e-05 -3.49479e-05 -4.26156e-05 -4.787e-05 -5.1031e-05 -5.2422e-05 -5.27963e-05 -5.22102e-05 -5.18507e-05 -5.1759e-05 -5.24409e-05 -5.36896e-05 -5.52878e-05 -5.66462e-05 -5.70256e-05 -5.63347e-05 -5.35917e-05 -4.95731e-05 -4.42224e-05 -3.88228e-05 -3.43008e-05 -3.12316e-05 -3.03675e-05 -3.0797e-05 -3.24262e-05 -3.31636e-05 -3.25109e-05 -2.98023e-05 -2.5089e-05 -2.0525e-05 -1.63895e-05 -1.49831e-05 -1.57142e-05 -1.76438e-05 -1.97902e-05 -1.91741e-05 -1.68577e-05 -1.2487e-05 -8.50424e-06 -7.41448e-06 -8.00608e-06 -1.11564e-05 -1.27438e-05 -1.15653e-05 -8.8898e-06 -4.35887e-06 -3.20008e-06 -4.39683e-06 -6.16337e-06 -8.51431e-06 -5.95916e-06 -2.7641e-06 -1.16475e-06 -5.53761e-08 -2.34708e-06 -2.92565e-06 -1.4619e-06 -8.67981e-07 5.2381e-08 3.40062e-08 -4.69533e-07 -2.51497e-07 -6.70329e-08 -5.16021e-08 -1.20911e-08 -1.23453e-08 -1.70889e-08 -6.03894e-09 -6.01503e-10 0 0 
0 0 -8.02287e-11 -4.25054e-09 -1.86421e-08 -2.73094e-08 1.00077e-08 -3.63917e-08 -1.21627e-07 -1.90764e-07 -7.06346e-07 -2.21699e-07 1.10208e-06 -9.49542e-07 -2.83733e-06 -3.68708e-06 -4.68014e-06 1.90922e-06 2.64489e-06 -4.71347e-06 -8.88396e-06 -1.55147e-05 -1.07633e-05 -1.14958e-06 -8.63665e-07 -2.67647e-06 -1.33916e-05 -2.19496e-05 -2.03705e-05 -1.63929e-05 -7.0451e-06 -4.27603e-06 -9.79177e-06 -1.7995e-05 -2.92793e-05 -3.25387e-05 -3.00762e-05 -2.36363e-05 -1.59056e-05 -1.55331e-05 -1.96995e-05 -3.02596e-05 -4.17023e-05 -4.93137e-05 -5.28069e-05 -4.90545e-05 -4.3777e-05 -3.80392e-05 -3.63063e-05 -4.03076e-05 -4.8329e-05 -6.06736e-05 -7.20765e-05 -8.21397e-05 -8.74753e-05 -8.84243e-05 -8.5938e-05 -8.08708e-05 -7.66286e-05 -7.32022e-05 -7.34917e-05 -7.61816e-05 -8.18797e-05 -8.87603e-05 -9.5424e-05 -0.000100713 -0.000102558 -0.000101067 -9.44749e-05 -8.39409e-05 -6.83454e-05 -4.91385e-05 -2.58732e-05 2.18759e-07 2.89423e-05 5.96014e-05 9.14144e-05 0.000124094 0.000156264 0.00018746 0.000215147 0.00023813 0.000253419 0.000261077 0.00026168 0.000260237 0.000260621 0.000264683 0.000265676 0.000251843 0.000210867 0.000141111 5.30504e-05 -3.59831e-05 -0.000114909 -0.000183091 -0.000245098 -0.000300036 -0.000341263 -0.00036352 -0.000368642 -0.000360596 -0.000339341 -0.000301993 -0.000249537 -0.000186717 -0.000117613 -4.40217e-05 2.93805e-05 9.62222e-05 0.000152556 0.000199207 0.000235805 0.000261735 0.000277133 0.000284747 0.000283986 0.000275254 0.000259299 0.000238888 0.000213347 0.000184563 0.000153707 0.000122423 9.00983e-05 5.86264e-05 2.86994e-05 3.93844e-07 -2.54972e-05 -4.82147e-05 -6.71066e-05 -8.28592e-05 -9.3374e-05 -9.99199e-05 -0.000101538 -9.94571e-05 -9.37413e-05 -8.69963e-05 -8.00665e-05 -7.42605e-05 -7.1688e-05 -7.13547e-05 -7.45838e-05 -7.89342e-05 -8.40973e-05 -8.65487e-05 -8.56825e-05 -8.03621e-05 -7.03646e-05 -5.91636e-05 -4.68171e-05 -3.88229e-05 -3.50775e-05 -3.69139e-05 -4.27082e-05 -4.81135e-05 -5.18834e-05 -4.85551e-05 -4.1136e-05 -2.9682e-05 -1.91761e-05 -1.5053e-05 -1.54671e-05 -2.33837e-05 -2.98907e-05 -3.23371e-05 -2.90823e-05 -1.77413e-05 -9.61962e-06 -4.22821e-06 -7.04511e-06 -1.64275e-05 -2.02979e-05 -2.17614e-05 -1.33118e-05 -2.76117e-06 -9.69464e-07 -1.24481e-06 -1.07155e-05 -1.53998e-05 -8.85345e-06 -4.726e-06 2.54621e-06 1.83292e-06 -4.65773e-06 -3.66682e-06 -2.82003e-06 -9.498e-07 1.07868e-06 -2.26328e-07 -7.01936e-07 -1.91037e-07 -1.22022e-07 -3.61188e-08 9.81779e-09 -3.10765e-08 -1.71054e-08 -3.10172e-09 0 0 
0 0 -3.27664e-09 -1.63457e-08 -2.73094e-08 2.59655e-08 -4.64516e-08 -2.95271e-07 -1.77216e-07 -2.16559e-07 -5.90691e-08 9.74304e-07 -3.01739e-06 -6.17159e-06 -1.34553e-07 8.60939e-07 3.99169e-06 -4.90133e-07 -2.20792e-05 -1.8022e-05 -8.11507e-06 1.71175e-06 1.38247e-05 -9.0021e-06 -2.71735e-05 -3.34828e-05 -3.19179e-05 -6.34861e-06 3.08074e-06 -6.03492e-07 -1.51023e-05 -4.22483e-05 -4.87334e-05 -4.54229e-05 -2.89398e-05 -8.93416e-06 -7.86506e-06 -1.51863e-05 -3.92149e-05 -6.18892e-05 -7.30835e-05 -7.44963e-05 -5.83017e-05 -4.34709e-05 -3.08774e-05 -3.11659e-05 -4.64358e-05 -6.74919e-05 -9.45399e-05 -0.000111912 -0.000121829 -0.000119022 -0.000107722 -9.51391e-05 -8.27275e-05 -8.09193e-05 -8.57808e-05 -0.00010214 -0.000123203 -0.000146731 -0.000168234 -0.000182476 -0.000190547 -0.000187835 -0.000179716 -0.000163574 -0.000145371 -0.000124643 -0.000104949 -8.65949e-05 -6.92975e-05 -5.39151e-05 -3.69096e-05 -1.97865e-05 2.112e-06 2.67409e-05 5.84522e-05 9.4409e-05 0.000136732 0.000181104 0.000226139 0.0002666 0.000300719 0.000329101 0.000357105 0.000392603 0.000437464 0.000482957 0.000504441 0.000478053 0.000391819 0.000263212 0.000122019 -4.4381e-06 -0.000115359 -0.000219129 -0.00032155 -0.000408332 -0.000468201 -0.000498203 -0.000508866 -0.000499495 -0.000465701 -0.000403398 -0.000322846 -0.000228023 -0.000120875 -1.86032e-06 0.000114529 0.000218656 0.00030439 0.00037205 0.000415514 0.000436462 0.000438974 0.00042808 0.000402556 0.000366191 0.00032382 0.000277178 0.000227557 0.000178397 0.000133987 9.2107e-05 5.64293e-05 2.60474e-05 2.54434e-06 -1.91712e-05 -3.55198e-05 -5.16097e-05 -6.72842e-05 -8.48583e-05 -0.000103013 -0.000122966 -0.000143538 -0.000160779 -0.000176553 -0.000184749 -0.000187222 -0.000179302 -0.000165213 -0.000143259 -0.000119793 -9.90929e-05 -8.25965e-05 -7.78376e-05 -7.98818e-05 -9.23419e-05 -0.000105234 -0.000116698 -0.000119544 -0.000110102 -9.29206e-05 -6.57518e-05 -4.49809e-05 -2.98752e-05 -2.97525e-05 -4.26374e-05 -5.72891e-05 -7.34933e-05 -7.23854e-05 -6.12709e-05 -3.882e-05 -1.47851e-05 -7.22158e-06 -8.38834e-06 -2.85037e-05 -4.51712e-05 -4.87244e-05 -4.20545e-05 -1.47783e-05 -1.54584e-07 3.56946e-06 -6.11408e-06 -3.14402e-05 -3.30496e-05 -2.68803e-05 -8.98995e-06 1.35122e-05 1.58244e-06 -8.11551e-06 -1.78805e-05 -2.18743e-05 -5.59064e-07 3.87687e-06 8.0089e-07 -1.70978e-07 -6.11879e-06 -2.99426e-06 9.50607e-07 -6.63862e-08 -2.19185e-07 -1.78337e-07 -2.92767e-07 -4.97305e-08 2.57647e-08 -1.04609e-08 -1.39717e-08 0 0 
0 0 -1.0219e-08 -1.27624e-08 1.00077e-08 -4.64516e-08 -3.64924e-07 -1.00083e-07 3.9302e-07 -6.3148e-07 -6.05604e-07 -3.21818e-06 -6.66629e-06 6.21775e-06 6.40847e-06 -9.49518e-06 -1.15475e-05 -3.17975e-05 -1.16678e-05 2.73292e-05 6.35776e-06 -3.31352e-06 -4.32995e-05 -6.60111e-05 -2.06589e-05 -2.52034e-06 2.14955e-05 8.39575e-06 -4.63722e-05 -6.34772e-05 -7.78423e-05 -4.84975e-05 -4.83219e-06 3.85856e-06 4.69492e-06 -4.0699e-05 -8.20607e-05 -0.000103236 -0.000107944 -7.02923e-05 -4.20398e-05 -1.63446e-05 -1.92314e-05 -5.37947e-05 -9.17923e-05 -0.000140877 -0.000160555 -0.000164165 -0.000143828 -0.000110424 -8.81655e-05 -7.15781e-05 -8.6516e-05 -0.000113003 -0.000157939 -0.000203946 -0.000241021 -0.000268121 -0.000270999 -0.00026507 -0.000240137 -0.000216589 -0.000191225 -0.00017564 -0.00017115 -0.000175514 -0.000192676 -0.000210328 -0.000234311 -0.00024852 -0.000259526 -0.000253973 -0.000237608 -0.000203006 -0.000153823 -8.917e-05 -9.74308e-06 7.89877e-05 0.000177316 0.000273578 0.000368181 0.000448351 0.000522789 0.000592094 0.000679009 0.000784533 0.000904328 0.000992426 0.00100387 0.000902172 0.000709518 0.000478368 0.000268008 8.88037e-05 -7.94504e-05 -0.000257834 -0.000427917 -0.000560233 -0.000642768 -0.000692886 -0.000718253 -0.000706541 -0.000643755 -0.000542244 -0.000417836 -0.000272235 -9.61573e-05 9.71075e-05 0.000288627 0.000463643 0.000619495 0.00073767 0.0008112 0.000840445 0.000841094 0.00080762 0.000750167 0.000672304 0.000587358 0.000486185 0.000382687 0.000276515 0.000175864 7.52986e-05 -1.20929e-05 -8.84656e-05 -0.000152387 -0.000200924 -0.000233483 -0.000249931 -0.000256754 -0.000245395 -0.000231296 -0.000207674 -0.00018831 -0.000169767 -0.00016577 -0.00017006 -0.000185561 -0.00021163 -0.00023456 -0.000259056 -0.000265965 -0.000263121 -0.000235978 -0.000199712 -0.000153764 -0.000108997 -8.31501e-05 -6.82578e-05 -8.52427e-05 -0.000107917 -0.000140942 -0.000161769 -0.00015877 -0.000138937 -9.0181e-05 -5.21032e-05 -1.74693e-05 -1.54648e-05 -4.1218e-05 -6.93334e-05 -0.000107088 -0.000102073 -8.13429e-05 -4.05429e-05 4.95936e-06 4.00802e-06 -4.22543e-06 -4.76694e-05 -7.74762e-05 -6.3318e-05 -4.66854e-05 8.03897e-06 2.10075e-05 -2.63487e-06 -2.05041e-05 -6.52217e-05 -4.28656e-05 -3.42682e-06 6.132e-06 2.68207e-05 -1.16347e-05 -3.14832e-05 -1.14812e-05 -9.43916e-06 6.27547e-06 6.09276e-06 -6.61354e-06 -3.19566e-06 -6.11673e-07 -6.33618e-07 3.8336e-07 -1.03424e-07 -3.65443e-07 -3.53511e-08 2.91192e-09 -1.02826e-08 0 0 
0 0 -1.27996e-08 -1.18467e-08 -3.63917e-08 -2.95271e-07 -1.00083e-07 6.91435e-07 -1.24389e-06 -2.84381e-06 -7.35108e-07 -2.9394e-06 6.91533e-06 6.30606e-06 -3.36676e-05 -2.13531e-05 -2.65495e-06 7.0439e-06 5.56636e-05 -2.85298e-05 -8.33034e-05 -5.71736e-05 -5.62153e-05 5.17282e-05 5.50948e-05 -1.9797e-05 -5.57901e-05 -0.00013738 -9.19269e-05 -1.72466e-05 1.7812e-05 5.81286e-05 -2.49651e-05 -9.4366e-05 -0.000146173 -0.000168333 -8.94872e-05 -3.98722e-05 2.02254e-05 1.64247e-05 -5.39351e-05 -0.000118507 -0.000210164 -0.000225457 -0.00021183 -0.000157314 -8.23607e-05 -5.35467e-05 -3.72407e-05 -9.4284e-05 -0.000163264 -0.000251121 -0.000325566 -0.000355099 -0.000365905 -0.000321654 -0.000280552 -0.000221558 -0.000189547 -0.000181053 -0.000199784 -0.000255788 -0.000315807 -0.000398633 -0.00045814 -0.000516643 -0.000538907 -0.000542764 -0.000515893 -0.00046665 -0.000404041 -0.000322361 -0.000244325 -0.000151094 -6.94282e-05 2.60851e-05 0.000109919 0.000205119 0.000287725 0.000371236 0.000437697 0.000500538 0.000569052 0.00067337 0.000837754 0.00105139 0.00126276 0.00136944 0.00130689 0.00106292 0.000738782 0.000427648 0.000191439 -2.63969e-05 -0.000263926 -0.000534919 -0.000761406 -0.000923602 -0.00102347 -0.00111167 -0.00115471 -0.00113393 -0.00103181 -0.000901611 -0.000736583 -0.000538824 -0.000289875 -3.58629e-05 0.000225449 0.000476096 0.0007133 0.000883611 0.00099181 0.00103774 0.00103874 0.000984378 0.000904167 0.000811497 0.000709076 0.000598635 0.000491373 0.000395055 0.000292041 0.000201781 0.000109933 2.88235e-05 -6.66318e-05 -0.000144904 -0.000236442 -0.000317557 -0.000399705 -0.000461287 -0.000511681 -0.000536646 -0.000529078 -0.000507146 -0.000449431 -0.000389248 -0.000307773 -0.000247809 -0.000190061 -0.000172777 -0.00018247 -0.000213903 -0.000274277 -0.000315875 -0.000359472 -0.000349973 -0.000320995 -0.000246098 -0.000159011 -8.9984e-05 -3.34081e-05 -5.11553e-05 -7.93538e-05 -0.000154338 -0.00020976 -0.000223294 -0.000209214 -0.000117752 -5.21069e-05 1.74764e-05 2.09713e-05 -3.97254e-05 -9.03499e-05 -0.00016831 -0.000145789 -9.42214e-05 -2.471e-05 5.68731e-05 1.64336e-05 -1.82036e-05 -9.24791e-05 -0.000136763 -5.60414e-05 -2.05676e-05 5.33814e-05 5.02102e-05 -5.60525e-05 -5.69552e-05 -8.25871e-05 -2.84889e-05 5.46479e-05 6.73264e-06 -2.79095e-06 -2.12067e-05 -3.33139e-05 6.17072e-06 6.77743e-06 -2.93278e-06 -7.49149e-07 -2.82563e-06 -1.23517e-06 6.72483e-07 -1.01767e-07 -2.88424e-07 -8.71071e-08 -8.69456e-09 0 0 
0 0 -2.52159e-08 -5.13945e-08 -1.21627e-07 -1.77216e-07 3.9302e-07 -1.24389e-06 -3.91591e-06 2.38286e-06 2.80505e-06 -3.98707e-06 -2.66696e-06 -3.96513e-05 -1.62262e-05 6.19647e-05 3.64043e-06 -7.12814e-06 -8.28735e-05 -0.000159019 4.19912e-05 6.634e-05 7.07407e-05 2.49573e-05 -0.000205904 -0.000153355 -9.27585e-05 6.59566e-06 0.000152839 2.09654e-05 -6.32758e-05 -0.000195847 -0.000269087 -0.000126717 -5.50537e-05 8.76887e-05 8.80183e-05 -3.79549e-05 -0.000138386 -0.00031269 -0.000310014 -0.000265682 -0.000150926 -2.88821e-06 1.49844e-05 2.10549e-05 -0.000122437 -0.000258011 -0.000390672 -0.000484175 -0.000453215 -0.000413237 -0.000274349 -0.000191861 -0.000120039 -0.000121552 -0.000201422 -0.000302092 -0.000469225 -0.000583412 -0.000712762 -0.000755598 -0.000770159 -0.000725222 -0.000644087 -0.000562422 -0.000457183 -0.000399439 -0.000329889 -0.000326122 -0.000314969 -0.000353982 -0.000380644 -0.000421238 -0.000439536 -0.000434227 -0.00040546 -0.000332975 -0.000253722 -0.000135779 -2.83619e-05 0.000136145 0.000341801 0.000688334 0.00112747 0.0016391 0.00202092 0.00216482 0.00197962 0.00161459 0.00122832 0.000972228 0.000776879 0.000543952 0.000209097 -0.000124512 -0.000374693 -0.000532768 -0.000680695 -0.00081374 -0.000871956 -0.000812253 -0.000692512 -0.000543554 -0.000351315 -8.39503e-05 0.00020239 0.000487776 0.000773018 0.00108531 0.00134515 0.00152992 0.00160935 0.00161951 0.00150445 0.00132698 0.00108882 0.000857691 0.000582403 0.000347024 0.000118001 -5.806e-05 -0.000227786 -0.000325236 -0.000398905 -0.000430807 -0.000433132 -0.000408042 -0.000371035 -0.000348524 -0.000306684 -0.000318716 -0.000322314 -0.000384709 -0.000440648 -0.000549396 -0.000630368 -0.00071247 -0.000759801 -0.000742044 -0.000699311 -0.000573863 -0.000458717 -0.000292053 -0.000193248 -0.000111524 -0.000111384 -0.00018583 -0.000266475 -0.000405981 -0.000448098 -0.00047901 -0.000387138 -0.00025411 -0.000117715 2.29896e-05 1.66583e-05 -9.75756e-07 -0.000149958 -0.000262944 -0.000308913 -0.000313613 -0.000138592 -3.86853e-05 8.84649e-05 8.89443e-05 -5.64185e-05 -0.000128187 -0.000271467 -0.000197856 -6.2712e-05 2.11402e-05 0.000152939 5.65262e-06 -9.29142e-05 -0.000152641 -0.000204524 2.30788e-05 6.84276e-05 6.42697e-05 4.03935e-05 -0.00015766 -8.24027e-05 -7.50543e-06 3.23692e-06 6.08843e-05 -1.62318e-05 -3.92642e-05 -2.70929e-06 -3.99226e-06 2.73653e-06 2.33352e-06 -3.88651e-06 -1.2505e-06 3.96024e-07 -1.88389e-07 -1.55985e-07 -3.82053e-08 0 0 
0 0 -2.11725e-08 -6.65556e-08 -1.90764e-07 -2.16559e-07 -6.3148e-07 -2.84381e-06 2.38286e-06 5.53855e-06 -1.71474e-05 -1.39378e-05 -5.84203e-06 -2.24486e-06 7.99858e-05 -3.87313e-05 -0.000156342 -3.96036e-05 -6.44539e-05 0.000175005 0.000175339 -0.000181259 -0.000159772 -0.000291863 -8.02485e-05 0.000243609 0.000101166 8.75771e-05 -0.000224685 -0.000403357 -0.000209418 -0.000140786 0.0001857 0.000203355 2.32211e-05 -0.000122177 -0.000457918 -0.000417246 -0.000343249 -0.000133769 0.000137173 0.000114034 0.000110458 -0.000183572 -0.000411578 -0.000571299 -0.00066226 -0.000480066 -0.000360101 -9.5169e-05 -2.35248e-06 7.2344e-06 -9.48869e-05 -0.000362982 -0.000556903 -0.000836234 -0.000918968 -0.000983284 -0.000892291 -0.000744957 -0.000597176 -0.000409115 -0.000356259 -0.000287665 -0.000393772 -0.00048638 -0.00069384 -0.000874774 -0.00106458 -0.00122112 -0.00129763 -0.00135394 -0.0012828 -0.00121464 -0.001012 -0.000833196 -0.000551811 -0.000320108 -4.32158e-05 0.000167348 0.000405053 0.000673612 0.00108933 0.00169316 0.00241784 0.00308636 0.00339223 0.00324265 0.00267623 0.00208302 0.00164525 0.00146251 0.00122093 0.000860452 0.000349061 -1.35332e-05 -0.000282375 -0.000461892 -0.000736075 -0.00089777 -0.000951255 -0.000828158 -0.000737194 -0.000547613 -0.000297622 8.98408e-05 0.000406519 0.00076591 0.00112642 0.00157183 0.00191632 0.00223975 0.00244886 0.00256839 0.00248339 0.0023199 0.0020684 0.00176324 0.0014062 0.00105857 0.000726399 0.000360534 4.79959e-05 -0.000275625 -0.000534661 -0.000828027 -0.000995968 -0.0011964 -0.00127508 -0.0013437 -0.00128424 -0.0012118 -0.00104682 -0.000848199 -0.000673629 -0.00046885 -0.000374534 -0.000273799 -0.000340146 -0.000387932 -0.000582539 -0.000731764 -0.000875941 -0.000970419 -0.000905257 -0.000821992 -0.000548812 -0.000353185 -8.32169e-05 1.274e-05 3.5072e-06 -8.81063e-05 -0.000354927 -0.000473731 -0.000659246 -0.000570032 -0.000406584 -0.000180677 0.000112715 0.00011557 0.000135042 -0.000132599 -0.000340957 -0.000416448 -0.000456711 -0.000124892 2.0368e-05 0.000204093 0.000185729 -0.00013797 -0.000209387 -0.000406681 -0.000227361 8.40042e-05 9.78247e-05 0.000238652 -8.04635e-05 -0.000289012 -0.000158928 -0.000179871 0.000171772 0.0001716 -6.45187e-05 -3.9882e-05 -0.000154906 -3.86484e-05 7.85969e-05 -2.48584e-06 -5.92832e-06 -1.3885e-05 -1.69923e-05 5.44372e-06 2.30613e-06 -2.81963e-06 -6.00529e-07 -2.96676e-07 -1.82983e-07 -3.13518e-08 0 0 
0 0 8.44319e-09 -2.52346e-07 -7.06346e-07 -5.90691e-08 -6.05604e-07 -7.35108e-07 2.80505e-06 -1.71474e-05 -1.8902e-05 3.71846e-05 4.66113e-06 -1.05622e-05 -6.11941e-05 -0.00020873 0.00011215 0.000192825 2.58565e-05 2.2552e-05 -0.000511924 -0.000256226 0.000168853 0.000158595 0.000431948 -0.000163454 -0.000482556 -0.000362096 -0.000378782 0.000282897 0.000341706 0.000183015 -1.26992e-05 -0.000639068 -0.000547119 -0.000489269 -0.000128891 0.000345443 0.000244768 0.000254931 -0.000275273 -0.000620553 -0.00077643 -0.000852556 -0.000398739 -0.000190992 0.000213167 0.000245837 5.72876e-05 -0.000198516 -0.000737264 -0.000940178 -0.00124391 -0.00113059 -0.00096017 -0.000670565 -0.000306581 -0.000187782 -1.89403e-05 -0.000239394 -0.000400957 -0.000822226 -0.00116226 -0.00150071 -0.00177215 -0.00183968 -0.00190958 -0.00170925 -0.00159749 -0.0012604 -0.0010693 -0.000759606 -0.000590146 -0.000406236 -0.000304114 -0.000260008 -0.00022271 -0.000308505 -0.000345039 -0.000510843 -0.000475844 -0.00035556 0.000250453 0.00105866 0.00210212 0.00271231 0.00280003 0.00215443 0.00139328 0.000839798 0.000818417 0.000890822 0.000795058 0.00037508 9.13725e-06 -0.000175766 -0.000246674 -0.000472044 -0.00075037 -0.000891362 -0.000825006 -0.000762059 -0.000727976 -0.000615273 -0.000331381 -6.77575e-05 0.000142883 0.000331201 0.00062909 0.00086343 0.00111858 0.0013318 0.0015961 0.00161251 0.00156235 0.00132664 0.00113184 0.000738469 0.000509878 0.000222939 0.000105331 -0.00010071 -9.74379e-05 -0.000181618 -0.000181756 -0.00023892 -0.000275314 -0.000393571 -0.000582681 -0.000739636 -0.0010548 -0.00124419 -0.00156126 -0.00167536 -0.00188773 -0.00181321 -0.00175007 -0.00148315 -0.00113227 -0.000795767 -0.000384519 -0.000216507 2.23798e-06 -0.000171853 -0.000286664 -0.0006573 -0.000950377 -0.00111365 -0.00123495 -0.000934129 -0.000723645 -0.0001903 6.30282e-05 0.000252546 0.000215737 -0.000183625 -0.000392736 -0.000854016 -0.000774685 -0.000620433 -0.00027305 0.000260095 0.000242819 0.000342658 -0.000130937 -0.000492108 -0.000542459 -0.000638423 -1.52959e-05 0.000179255 0.000333477 0.000281059 -0.000377225 -0.000360227 -0.000478266 -0.000164213 0.000422997 0.000153891 0.000164267 -0.000254622 -0.000506382 2.09537e-05 2.45207e-05 0.000189338 0.000109779 -0.000206706 -6.08756e-05 -1.08119e-05 4.34168e-06 3.65187e-05 -1.87955e-05 -1.70169e-05 2.71525e-06 -6.97594e-07 -6.72368e-07 -1.93613e-07 -3.88301e-07 -2.00766e-07 0 0 
0 0 -1.50166e-07 -4.71548e-07 -2.21699e-07 9.74304e-07 -3.21818e-06 -2.9394e-06 -3.98707e-06 -1.39378e-05 3.71846e-05 4.84638e-06 -0.000128107 -2.0292e-05 -1.98729e-05 0.000137941 0.000283263 -0.000402379 -0.000328469 -0.000202403 5.36151e-07 0.000813531 6.88424e-05 -0.000301764 -0.000542095 -0.000825386 0.000261051 0.000402282 0.000493611 0.000267814 -0.000791755 -0.000678299 -0.000772627 -0.000183502 0.000597139 0.000417876 0.000513646 -0.000374056 -0.000873351 -0.000999575 -0.00106518 -0.000195177 7.77759e-05 0.000612636 0.00050567 -4.48355e-05 -0.000452236 -0.0013089 -0.00134602 -0.00149278 -0.00102716 -0.000478777 -0.000103111 0.000387044 0.000153117 7.02888e-05 -0.00064005 -0.0011312 -0.00172569 -0.00214301 -0.00217874 -0.00223851 -0.00176522 -0.00154753 -0.000948784 -0.000732508 -0.000409952 -0.000402119 -0.000517702 -0.000726573 -0.00117166 -0.00145913 -0.00200011 -0.00219437 -0.00261007 -0.00262847 -0.00283162 -0.00272742 -0.00276949 -0.00252124 -0.0021035 -0.00114412 0.000344781 0.0021262 0.00372907 0.00439245 0.00413809 0.00313547 0.00253414 0.00248038 0.00313872 0.00341724 0.00340904 0.00295641 0.00298729 0.00301717 0.00313725 0.00273024 0.00259608 0.00249372 0.00272522 0.00256713 0.00263297 0.00265105 0.0029989 0.00297671 0.0031267 0.0031088 0.0033032 0.00314238 0.00323196 0.00322935 0.00337873 0.00313827 0.00293206 0.00242465 0.00181347 0.000975934 0.000236555 -0.000498957 -0.00123069 -0.00175031 -0.0022229 -0.00244232 -0.00271796 -0.00256168 -0.00257799 -0.00219535 -0.00198454 -0.00143596 -0.0011599 -0.000688451 -0.000461466 -0.000368535 -0.000378171 -0.000695206 -0.000926745 -0.00151331 -0.00172001 -0.00221461 -0.00215456 -0.00211131 -0.00170655 -0.00110897 -0.000615153 8.20516e-05 0.000172901 0.000406653 -9.5753e-05 -0.000460472 -0.00101336 -0.00149152 -0.00133536 -0.00130104 -0.000448014 -3.69835e-05 0.000501708 0.000613243 8.55216e-05 -0.000194618 -0.00106332 -0.00100456 -0.000881132 -0.000371168 0.00051374 0.000418478 0.000594261 -0.000197288 -0.000777842 -0.00068228 -0.000790483 0.000273217 0.000487425 0.000394502 0.000253046 -0.000817814 -0.000538447 -0.000301504 6.44013e-05 0.000798703 -2.45929e-06 -0.000202245 -0.000326077 -0.000398339 0.000278483 0.000135106 -2.03746e-05 -2.06197e-05 -0.000126901 4.55369e-06 3.65191e-05 -1.3931e-05 -3.97164e-06 -2.94468e-06 -3.39092e-06 1.1793e-06 1.48126e-07 -4.40417e-07 0 0 
0 0 -3.29863e-07 4.03698e-08 1.10208e-06 -3.01739e-06 -6.66629e-06 6.91533e-06 -2.66696e-06 -5.84203e-06 4.66113e-06 -0.000128107 1.47605e-05 0.000233273 -8.27476e-05 -3.62587e-05 -0.000445271 -0.000413347 0.000732993 0.000298529 0.000285603 -0.000449306 -0.00135472 -3.94609e-05 0.000162706 0.000882788 0.000788354 -0.00075414 -0.000730544 -0.00125131 -0.000404465 0.000798458 0.000624479 0.000954965 -0.00040965 -0.00112608 -0.00125046 -0.00136128 8.57033e-05 0.000413924 0.00106447 0.000766738 -0.000323543 -0.000813581 -0.00197564 -0.0016314 -0.00142048 -0.000560731 0.000424179 0.000568846 0.000967157 1.68759e-05 -0.00048906 -0.00160739 -0.00227699 -0.00249268 -0.00263774 -0.00183265 -0.00151236 -0.000464068 -0.000200919 0.000234864 6.62512e-05 -0.000392694 -0.00091506 -0.0019193 -0.00243325 -0.00340893 -0.00360407 -0.00413136 -0.00390139 -0.003851 -0.00333206 -0.00284535 -0.00228687 -0.00166162 -0.00136502 -0.000931818 -0.00100897 -0.00057316 -0.000220165 0.00125859 0.00279735 0.00477741 0.00538606 0.00495559 0.00299338 0.00137594 0.000536154 0.0011425 0.00181654 0.00209757 0.00169853 0.00161952 0.0019642 0.00241674 0.00235584 0.00207752 0.00206035 0.00229552 0.00233279 0.00213683 0.00207251 0.00222515 0.00223776 0.00207969 0.00196816 0.00203416 0.00183018 0.00163541 0.00151727 0.00183418 0.00194357 0.0023386 0.00248242 0.00278408 0.00239347 0.00233954 0.00179332 0.0015851 0.000855944 0.000693534 -2.74738e-06 -0.000353232 -0.00106513 -0.00151265 -0.00226284 -0.00285128 -0.00330879 -0.00384005 -0.00387477 -0.00405107 -0.00353956 -0.00337385 -0.00238153 -0.00188275 -0.000885495 -0.000331343 0.000109232 0.000254973 -0.000161284 -0.000431808 -0.00148979 -0.00179325 -0.00261449 -0.00247759 -0.00224468 -0.00159252 -0.00047575 3.73295e-05 0.000967188 0.000579801 0.000443069 -0.000563709 -0.00141518 -0.00162717 -0.00197695 -0.000800445 -0.000325326 0.000756373 0.00106378 0.000408443 9.15556e-05 -0.00135872 -0.00126374 -0.00113271 -0.000421326 0.000954675 0.000634141 0.000795541 -0.000407658 -0.00126605 -0.000745768 -0.000753636 0.000771244 0.000865786 0.000156464 -4.23483e-05 -0.00133871 -0.000445745 0.000278999 0.000291973 0.000720353 -0.000410176 -0.000440966 -3.70755e-05 -8.26823e-05 0.000229482 1.38564e-05 -0.000126884 4.31399e-06 -5.98802e-06 -2.69013e-06 6.62883e-06 -6.6289e-06 -2.56418e-06 7.13216e-08 3.87674e-08 0 0 