<?xml version="1.0"?>
<VTKFile type="ImageData" version="0.1" byte_order="LittleEndian">
<ImageData WholeExtent="0 199 0 199 0 0" Origin="0 0 0" Spacing="15 15 0">
<Piece Extent="0 199 0 199 0 0">
<PointData Scalars="Amplitude">
<DataArray type="Float32" Name="Amplitude" format="ascii">
0 0 0 0 0 0 0 0 0 0 0 0 0 0 0 0 0 0 0 0 0 0 0 0 0 0 0 0 0 0 0 0 0 0 0 0 0 0 0 0 0 0 0 0 0 0 0 0 0 0 0 0 0 0 0 0 0 0 0 0 0 0 0 0 0 0 0 0 0 0 0 0 0 0 0 0 0 0 0 0 0 0 0 0 0 0 0 0 0 0 0 0 0 0 0 0 0 0 0 0 0 0 0 0 0 0 0 0 0 0 0 0 0 0 0 0 0 0 0 0 0 0 0 0 0 0 0 0 0 0 0 0 0 0 0 0 0 0 0 0 0 0 0 0 0 0 0 0 0 0 0 0 0 0 0 0 0 0 0 0 0 0 0 0 0 0 0 0 0 0 0 0 0 0 0 0 0 0 0 0 0 0 0 0 0 0 0 0 0 0 0 0 0 0 0 0 0 0 0 0 
0 0 0 0 0 0 0 0 0 0 0 0 0 0 0 0 0 0 0 0 0 0 0 0 0 0 0 0 0 0 0 0 0 0 0 0 0 0 0 0 0 0 0 0 0 0 0 0 0 0 0 0 0 0 0 0 0 0 0 0 0 0 0 0 0 0 0 0 0 0 0 0 0 0 0 0 0 0 0 0 0 0 0 0 0 0 0 0 0 0 0 0 0 0 0 0 0 0 0 0 0 0 0 0 0 0 0 0 0 0 0 0 0 0 0 0 0 0 0 0 0 0 0 0 0 0 0 0 0 0 0 0 0 0 0 0 0 0 0 0 0 0 0 0 0 0 0 0 0 0 0 0 0 0 0 0 0 0 0 0 0 0 0 0 0 0 0 0 0 0 0 0 0 0 0 0 0 0 0 0 0 0 0 0 0 0 0 0 0 0 0 0 0 0 0 0 0 0 0 0 
0 0 0 0 0 0 0 0 0 0 0 0 0 0 0 0 0 0 0 0 0 0 0 0 0 0 0 0 0 0 0 0 0 0 0 0 0 0 -0 -8.95726e-44 -8.78083e-43 -1.71002e-42 1.06171e-41 7.57526e-41 7.92365e-41 -1.14632e-39 -5.91094e-39 -2.51366e-39 9.23879e-38 4.06641e-37 1.28098e-37 -5.79135e-36 -2.51757e-35 -1.86368e-35 2.7114e-34 1.35321e-33 2.11531e-33 -7.70141e-33 -5.64169e-32 -1.48975e-31 -2.41343e-32 1.40049e-30 6.09341e-30 1.27668e-29 7.97176e-31 -1.01205e-28 -4.28043e-28 -1.0355e-27 -1.31511e-27 1.35128e-27 1.34841e-26 4.59954e-26 1.07974e-25 1.84331e-25 1.8628e-25 -1.29083e-25 -1.24998e-24 -3.94825e-24 -9.14697e-24 -1.74647e-23 -2.83103e-23 -3.85332e-23 -4.08634e-23 -2.26432e-23 3.44667e-23 1.53181e-22 3.57409e-22 6.67537e-22 1.09515e-21 1.63866e-21 2.28114e-21 2.99145e-21 3.72846e-21 4.44761e-21 5.10805e-21 5.67856e-21 6.14081e-21 6.48926e-21 6.72809e-21 6.866e-21 6.91093e-21 6.866e-21 6.72809e-21 6.48926e-21 6.14081e-21 5.67856e-21 5.10805e-21 4.44761e-21 3.72846e-21 2.99145e-21 2.28114e-21 1.63866e-21 1.09515e-21 6.67537e-22 3.57409e-22 1.53181e-22 3.44667e-23 -2.26432e-23 -4.08634e-23 -3.85332e-23 -2.83103e-23 -1.74647e-23 -9.14697e-24 -3.94825e-24 -1.24998e-24 -1.29083e-25 1.8628e-25 1.84331e-25 1.07974e-25 4.59954e-26 1.34841e-26 1.35128e-27 -1.31511e-27 -1.0355e-27 -4.28043e-28 -1.01205e-28 7.97176e-31 1.27668e-29 6.09341e-30 1.40049e-30 -2.41343e-32 -1.48975e-31 -5.64169e-32 -7.70141e-33 2.11531e-33 1.35321e-33 2.7114e-34 -1.86368e-35 -2.51757e-35 -5.79135e-36 1.28098e-37 4.06641e-37 9.23879e-38 -2.51366e-39 -5.91094e-39 -1.14632e-39 7.92365e-41 7.57526e-41 1.06171e-41 -1.71002e-42 -8.78083e-43 -8.95726e-44 -0 0 0 0 0 0 0 0 0 0 0 0 0 0 0 0 0 0 0 0 0 0 0 0 0 0 0 0 0 0 0 0 0 0 0 0 0 0 
0 0 0 0 0 0 0 0 0 0 0 0 0 0 0 0 0 0 0 0 0 0 0 0 0 0 0 0 0 0 0 0 0 0 0 0 0 -3.29183e-46 -1.98527e-43 -2.21003e-42 -6.27351e-42 2.16475e-41 2.101e-40 3.58474e-40 -2.73434e-39 -1.72575e-38 -1.66996e-38 2.39499e-37 1.22029e-36 8.6457e-37 -1.58954e-35 -7.64146e-35 -7.26629e-35 7.84587e-34 4.15672e-33 6.71479e-33 -2.4269e-32 -1.79533e-31 -4.63612e-31 3.37016e-32 4.94586e-30 2.02419e-29 3.78935e-29 -2.2595e-29 -4.14991e-28 -1.54614e-27 -3.26728e-27 -2.41256e-27 1.21832e-26 6.48483e-26 1.87557e-25 3.78358e-25 4.8443e-25 -2.33037e-26 -2.35711e-24 -8.62543e-24 -2.15368e-23 -4.29275e-23 -7.03707e-23 -9.14871e-23 -7.65632e-23 2.83997e-23 3.04595e-22 8.55074e-22 1.78815e-21 3.18983e-21 5.09e-21 7.43162e-21 1.00538e-20 1.2698e-20 1.50411e-20 1.67512e-20 1.75546e-20 1.7299e-20 1.59959e-20 1.38323e-20 1.11472e-20 8.37724e-21 5.98108e-21 4.36023e-21 3.78771e-21 4.36023e-21 5.98108e-21 8.37724e-21 1.11472e-20 1.38323e-20 1.59959e-20 1.7299e-20 1.75546e-20 1.67512e-20 1.50411e-20 1.2698e-20 1.00538e-20 7.43162e-21 5.09e-21 3.18983e-21 1.78815e-21 8.55074e-22 3.04595e-22 2.83997e-23 -7.65632e-23 -9.14871e-23 -7.03707e-23 -4.29275e-23 -2.15368e-23 -8.62543e-24 -2.35711e-24 -2.33037e-26 4.8443e-25 3.78358e-25 1.87557e-25 6.48483e-26 1.21832e-26 -2.41256e-27 -3.26728e-27 -1.54614e-27 -4.14991e-28 -2.2595e-29 3.78935e-29 2.02419e-29 4.94586e-30 3.37016e-32 -4.63612e-31 -1.79533e-31 -2.4269e-32 6.71479e-33 4.15672e-33 7.84587e-34 -7.26629e-35 -7.64146e-35 -1.58954e-35 8.6457e-37 1.22029e-36 2.39499e-37 -1.66996e-38 -1.72575e-38 -2.73434e-39 3.58474e-40 2.101e-40 2.16475e-41 -6.27351e-42 -2.21003e-42 -1.98527e-43 -3.29183e-46 0 0 0 0 0 0 0 0 0 0 0 0 0 0 0 0 0 0 0 0 0 0 0 0 0 0 0 0 0 0 0 0 0 0 0 0 
0 0 0 0 0 0 0 0 0 0 0 0 0 0 0 0 0 0 0 0 0 0 0 0 0 0 0 0 0 0 0 0 0 0 -0 -0 0 -1.36441e-44 -1.4872e-42 -1.03681e-41 -1.05073e-41 1.78024e-40 8.81953e-40 -2.24722e-40 -1.7885e-38 -6.41473e-38 7.62927e-38 1.41412e-36 4.22106e-36 -6.42601e-36 -9.13538e-35 -2.6527e-34 2.66006e-34 4.75832e-33 1.56173e-32 2.2764e-33 -1.82422e-31 -7.72391e-31 -1.12244e-30 3.6535e-30 2.65677e-29 7.45094e-29 6.33054e-29 -3.92086e-28 -2.15541e-27 -5.83517e-27 -7.99984e-27 8.29659e-27 8.70923e-26 3.00082e-25 6.85438e-25 1.03687e-24 4.45894e-25 -3.39931e-24 -1.48427e-23 -3.99194e-23 -8.34161e-23 -1.41252e-22 -1.86652e-22 -1.50866e-22 9.66702e-23 7.58983e-22 2.10015e-21 4.40068e-21 7.87675e-21 1.25745e-20 1.82655e-20 2.43797e-20 3.00094e-20 3.40052e-20 3.51571e-20 3.24301e-20 2.52023e-20 1.34505e-20 -2.16464e-21 -2.03353e-20 -3.92603e-20 -5.68899e-20 -7.1216e-20 -8.05578e-20 -8.38016e-20 -8.05578e-20 -7.1216e-20 -5.68899e-20 -3.92603e-20 -2.03353e-20 -2.16464e-21 1.34505e-20 2.52023e-20 3.24301e-20 3.51571e-20 3.40052e-20 3.00094e-20 2.43797e-20 1.82655e-20 1.25745e-20 7.87675e-21 4.40068e-21 2.10015e-21 7.58983e-22 9.66702e-23 -1.50866e-22 -1.86652e-22 -1.41252e-22 -8.34161e-23 -3.99194e-23 -1.48427e-23 -3.39931e-24 4.45894e-25 1.03687e-24 6.85438e-25 3.00082e-25 8.70923e-26 8.29659e-27 -7.99984e-27 -5.83517e-27 -2.15541e-27 -3.92086e-28 6.33054e-29 7.45094e-29 2.65677e-29 3.6535e-30 -1.12244e-30 -7.72391e-31 -1.82422e-31 2.2764e-33 1.56173e-32 4.75832e-33 2.66006e-34 -2.6527e-34 -9.13538e-35 -6.42601e-36 4.22106e-36 1.41412e-36 7.62927e-38 -6.41473e-38 -1.7885e-38 -2.24722e-40 8.81953e-40 1.78024e-40 -1.05073e-41 -1.03681e-41 -1.4872e-42 -1.36441e-44 0 -0 -0 0 0 0 0 0 0 0 0 0 0 0 0 0 0 0 0 0 0 0 0 0 0 0 0 0 0 0 0 0 0 0 0 0 
0 0 0 0 0 0 0 0 0 0 0 0 0 0 0 0 0 0 0 0 0 0 0 0 0 0 0 0 0 0 0 0 -0 -0 0 5.47118e-45 -5.74474e-44 -2.99e-42 -1.73587e-41 -2.31704e-42 3.64352e-40 1.40201e-39 -2.18651e-39 -3.59669e-38 -9.46541e-38 3.04244e-37 2.86273e-36 5.81482e-36 -2.51029e-35 -1.91754e-34 -3.66413e-34 1.40687e-33 1.08569e-32 2.41185e-32 -4.63537e-32 -4.93244e-31 -1.44376e-30 -1.72569e-31 1.53105e-29 6.4879e-29 1.13437e-28 -1.53992e-28 -1.6761e-27 -5.62105e-27 -9.51802e-27 4.44002e-27 8.85952e-26 3.32828e-25 7.73618e-25 1.05868e-24 -2.97706e-25 -7.01054e-24 -2.56949e-23 -6.39456e-23 -1.21864e-22 -1.72029e-22 -1.24837e-22 2.16294e-22 1.19126e-21 3.27504e-21 6.977e-21 1.26068e-20 1.9901e-20 2.75659e-20 3.28639e-20 3.14138e-20 1.73704e-20 -1.59354e-20 -7.49393e-20 -1.64565e-19 -2.87012e-19 -4.40918e-19 -6.211e-19 -8.18969e-19 -1.02348e-18 -1.22243e-18 -1.40373e-18 -1.55656e-18 -1.67212e-18 -1.74401e-18 -1.7684e-18 -1.74401e-18 -1.67212e-18 -1.55656e-18 -1.40373e-18 -1.22243e-18 -1.02348e-18 -8.18969e-19 -6.211e-19 -4.40918e-19 -2.87012e-19 -1.64565e-19 -7.49393e-20 -1.59354e-20 1.73704e-20 3.14138e-20 3.28639e-20 2.75659e-20 1.9901e-20 1.26068e-20 6.977e-21 3.27504e-21 1.19126e-21 2.16294e-22 -1.24837e-22 -1.72029e-22 -1.21864e-22 -6.39456e-23 -2.56949e-23 -7.01054e-24 -2.97706e-25 1.05868e-24 7.73618e-25 3.32828e-25 8.85952e-26 4.44002e-27 -9.51802e-27 -5.62105e-27 -1.6761e-27 -1.53992e-28 1.13437e-28 6.4879e-29 1.53105e-29 -1.72569e-31 -1.44376e-30 -4.93244e-31 -4.63537e-32 2.41185e-32 1.08569e-32 1.40687e-33 -3.66413e-34 -1.91754e-34 -2.51029e-35 5.81482e-36 2.86273e-36 3.04244e-37 -9.46541e-38 -3.59669e-38 -2.18651e-39 1.40201e-39 3.64352e-40 -2.31704e-42 -1.73587e-41 -2.99e-42 -5.74474e-44 5.47118e-45 0 -0 -0 0 0 0 0 0 0 0 0 0 0 0 0 0 0 0 0 0 0 0 0 0 0 0 0 0 0 0 0 0 0 0 
0 0 0 0 0 0 0 0 0 0 0 0 0 0 0 0 0 0 0 0 0 0 0 0 0 0 0 0 0 0 0 -0 -0 0 2.26219e-43 1.70007e-43 -5.52523e-42 -2.75987e-41 2.13606e-41 6.88382e-40 2.08092e-39 -6.63533e-39 -6.69765e-38 -1.22481e-37 8.0569e-37 5.32387e-36 6.17869e-36 -6.72342e-35 -3.63663e-34 -3.53292e-34 4.18523e-33 2.17928e-32 2.74452e-32 -1.87024e-31 -1.11216e-30 -2.15822e-30 4.56913e-30 4.34528e-29 1.28201e-28 7.31199e-29 -9.77539e-28 -4.74486e-27 -1.08545e-26 -4.33581e-27 7.04265e-26 3.25271e-25 8.28533e-25 1.15659e-24 -6.87583e-25 -9.89468e-24 -3.55295e-23 -8.592e-23 -1.50509e-22 -1.57743e-22 9.58786e-23 1.02901e-21 3.3119e-21 7.74094e-21 1.47949e-20 2.37378e-20 3.12617e-20 2.99076e-20 6.79507e-21 -5.66047e-20 -1.82958e-19 -3.9551e-19 -7.12849e-19 -1.14311e-18 -1.67923e-18 -2.29694e-18 -2.95664e-18 -3.609e-18 -4.20353e-18 -4.69796e-18 -5.06607e-18 -5.30217e-18 -5.42105e-18 -5.45334e-18 -5.43748e-18 -5.41031e-18 -5.39808e-18 -5.41031e-18 -5.43748e-18 -5.45334e-18 -5.42105e-18 -5.30217e-18 -5.06607e-18 -4.69796e-18 -4.20353e-18 -3.609e-18 -2.95664e-18 -2.29694e-18 -1.67923e-18 -1.14311e-18 -7.12849e-19 -3.9551e-19 -1.82958e-19 -5.66047e-20 6.79507e-21 2.99076e-20 3.12617e-20 2.37378e-20 1.47949e-20 7.74094e-21 3.3119e-21 1.02901e-21 9.58786e-23 -1.57743e-22 -1.50509e-22 -8.592e-23 -3.55295e-23 -9.89468e-24 -6.87583e-25 1.15659e-24 8.28533e-25 3.25271e-25 7.04265e-26 -4.33581e-27 -1.08545e-26 -4.74486e-27 -9.77539e-28 7.31199e-29 1.28201e-28 4.34528e-29 4.56913e-30 -2.15822e-30 -1.11216e-30 -1.87024e-31 2.74452e-32 2.17928e-32 4.18523e-33 -3.53292e-34 -3.63663e-34 -6.72342e-35 6.17869e-36 5.32387e-36 8.0569e-37 -1.22481e-37 -6.69765e-38 -6.63533e-39 2.08092e-39 6.88382e-40 2.13606e-41 -2.75987e-41 -5.52523e-42 1.70007e-43 2.26219e-43 0 -0 -0 0 0 0 0 0 0 0 0 0 0 0 0 0 0 0 0 0 0 0 0 0 0 0 0 0 0 0 0 0 0 
0 0 0 0 0 0 0 0 0 0 0 0 0 0 0 0 0 0 0 0 0 0 0 0 0 0 0 0 0 0 -0 -0 2.06115e-44 5.35898e-43 3.13294e-43 -9.74922e-42 -4.14181e-41 7.49227e-41 1.20865e-39 2.78592e-39 -1.55183e-38 -1.15448e-37 -1.21109e-37 1.78631e-36 9.05533e-36 2.11411e-36 -1.50901e-34 -6.1943e-34 5.75765e-35 9.98972e-33 3.84708e-32 6.50714e-33 -5.14176e-31 -2.1479e-30 -2.00192e-30 1.85209e-29 9.91274e-29 1.94991e-28 -2.74562e-28 -3.14968e-27 -1.03128e-26 -1.31532e-26 3.75447e-26 2.67684e-25 8.09333e-25 1.31104e-24 -4.35541e-25 -1.0753e-23 -4.10327e-23 -1.00142e-22 -1.6367e-22 -1.01195e-22 4.44612e-22 2.18231e-21 6.14793e-21 1.32307e-20 2.28262e-20 3.02566e-20 2.30129e-20 -2.32753e-20 -1.47147e-19 -3.9907e-19 -8.31961e-19 -1.48341e-18 -2.35163e-18 -3.37064e-18 -4.39308e-18 -5.18896e-18 -5.46589e-18 -4.91085e-18 -3.24691e-18 -2.93134e-19 3.98533e-18 9.44923e-18 1.57857e-17 2.25374e-17 2.91544e-17 3.50601e-17 3.97199e-17 4.27023e-17 4.37288e-17 4.27023e-17 3.97199e-17 3.50601e-17 2.91544e-17 2.25374e-17 1.57857e-17 9.44923e-18 3.98533e-18 -2.93134e-19 -3.24691e-18 -4.91085e-18 -5.46589e-18 -5.18896e-18 -4.39308e-18 -3.37064e-18 -2.35163e-18 -1.48341e-18 -8.31961e-19 -3.9907e-19 -1.47147e-19 -2.32753e-20 2.30129e-20 3.02566e-20 2.28262e-20 1.32307e-20 6.14793e-21 2.18231e-21 4.44612e-22 -1.01195e-22 -1.6367e-22 -1.00142e-22 -4.10327e-23 -1.0753e-23 -4.35541e-25 1.31104e-24 8.09333e-25 2.67684e-25 3.75447e-26 -1.31532e-26 -1.03128e-26 -3.14968e-27 -2.74562e-28 1.94991e-28 9.91274e-29 1.85209e-29 -2.00192e-30 -2.1479e-30 -5.14176e-31 6.50714e-33 3.84708e-32 9.98972e-33 5.75765e-35 -6.1943e-34 -1.50901e-34 2.11411e-36 9.05533e-36 1.78631e-36 -1.21109e-37 -1.15448e-37 -1.55183e-38 2.78592e-39 1.20865e-39 7.49227e-41 -4.14181e-41 -9.74922e-42 3.13294e-43 5.35898e-43 2.06115e-44 -0 -0 0 0 0 0 0 0 0 0 0 0 0 0 0 0 0 0 0 0 0 0 0 0 0 0 0 0 0 0 0 
0 0 0 0 0 0 0 0 0 0 0 0 0 0 0 0 0 0 0 0 0 0 0 0 0 0 0 0 0 -0 0 4.95724e-44 7.43586e-43 9.22597e-44 -1.62955e-41 -5.83563e-41 1.77035e-40 1.98935e-39 3.27068e-39 -3.14205e-38 -1.85435e-37 -4.5122e-38 3.51876e-36 1.4136e-35 -1.18974e-35 -2.99978e-34 -9.45985e-34 1.37788e-33 2.06804e-32 5.94713e-32 -7.64451e-32 -1.1624e-30 -3.57062e-30 1.19191e-30 5.04781e-29 1.89856e-28 1.80535e-28 -1.39212e-27 -7.65337e-27 -1.73157e-26 3.00339e-27 1.73269e-25 6.93464e-25 1.42925e-24 4.14935e-25 -9.07744e-24 -4.04876e-23 -1.0493e-22 -1.68738e-22 -4.68185e-23 7.7678e-22 3.31021e-21 8.88159e-21 1.79783e-20 2.7156e-20 2.32379e-20 -2.47968e-20 -1.73276e-19 -5.04098e-19 -1.10824e-18 -2.04309e-18 -3.26015e-18 -4.51139e-18 -5.2579e-18 -4.61629e-18 -1.37937e-18 5.86522e-18 1.85225e-17 3.77192e-17 6.4035e-17 9.73058e-17 1.36553e-16 1.80061e-16 2.25582e-16 2.70628e-16 3.12767e-16 3.49863e-16 3.80229e-16 4.02656e-16 4.16381e-16 4.20999e-16 4.16381e-16 4.02656e-16 3.80229e-16 3.49863e-16 3.12767e-16 2.70628e-16 2.25582e-16 1.80061e-16 1.36553e-16 9.73058e-17 6.4035e-17 3.77192e-17 1.85225e-17 5.86522e-18 -1.37937e-18 -4.61629e-18 -5.2579e-18 -4.51139e-18 -3.26015e-18 -2.04309e-18 -1.10824e-18 -5.04098e-19 -1.73276e-19 -2.47968e-20 2.32379e-20 2.7156e-20 1.79783e-20 8.88159e-21 3.31021e-21 7.7678e-22 -4.68185e-23 -1.68738e-22 -1.0493e-22 -4.04876e-23 -9.07744e-24 4.14935e-25 1.42925e-24 6.93464e-25 1.73269e-25 3.00339e-27 -1.73157e-26 -7.65337e-27 -1.39212e-27 1.80535e-28 1.89856e-28 5.04781e-29 1.19191e-30 -3.57062e-30 -1.1624e-30 -7.64451e-32 5.94713e-32 2.06804e-32 1.37788e-33 -9.45985e-34 -2.99978e-34 -1.18974e-35 1.4136e-35 3.51876e-36 -4.5122e-38 -1.85435e-37 -3.14205e-38 3.27068e-39 1.98935e-39 1.77035e-40 -5.83563e-41 -1.62955e-41 9.22597e-44 7.43586e-43 4.95724e-44 0 -0 0 0 0 0 0 0 0 0 0 0 0 0 0 0 0 0 0 0 0 0 0 0 0 0 0 0 0 0 
0 0 0 0 0 0 0 0 0 0 0 0 0 0 0 0 0 0 0 0 0 0 0 0 0 0 0 0 -0 0 9.10643e-44 8.48554e-43 -6.11235e-43 -2.59119e-41 -7.73177e-41 3.51249e-40 3.08823e-39 3.11985e-39 -5.7499e-38 -2.78727e-37 1.76454e-37 6.32779e-36 2.02275e-35 -4.44401e-35 -5.41882e-34 -1.27709e-33 4.42515e-33 3.83456e-32 7.83117e-32 -2.85521e-31 -2.28908e-30 -4.98981e-30 1.15574e-29 1.1214e-28 3.05859e-28 -1.19479e-28 -4.03426e-27 -1.5184e-26 -1.96687e-26 7.23518e-26 4.89146e-25 1.36661e-24 1.41196e-24 -5.46802e-24 -3.38824e-23 -9.9799e-23 -1.72682e-22 -4.04519e-23 9.31305e-22 4.00509e-21 1.07045e-20 2.06896e-20 2.60991e-20 9.47693e-22 -1.13039e-19 -4.16156e-19 -1.03801e-18 -2.07491e-18 -3.44947e-18 -4.68259e-18 -4.60886e-18 -1.12261e-18 8.91154e-18 2.94412e-17 6.46171e-17 1.17826e-16 1.90551e-16 2.81364e-16 3.85397e-16 4.94557e-16 5.98563e-16 6.86661e-16 7.49651e-16 7.81769e-16 7.81978e-16 7.54333e-16 7.07348e-16 6.52469e-16 6.01967e-16 5.66687e-16 5.54049e-16 5.66687e-16 6.01967e-16 6.52469e-16 7.07348e-16 7.54333e-16 7.81978e-16 7.81769e-16 7.49651e-16 6.86661e-16 5.98563e-16 4.94557e-16 3.85397e-16 2.81364e-16 1.90551e-16 1.17826e-16 6.46171e-17 2.94412e-17 8.91154e-18 -1.12261e-18 -4.60886e-18 -4.68259e-18 -3.44947e-18 -2.07491e-18 -1.03801e-18 -4.16156e-19 -1.13039e-19 9.47693e-22 2.60991e-20 2.06896e-20 1.07045e-20 4.00509e-21 9.31305e-22 -4.04519e-23 -1.72682e-22 -9.9799e-23 -3.38824e-23 -5.46802e-24 1.41196e-24 1.36661e-24 4.89146e-25 7.23518e-26 -1.96687e-26 -1.5184e-26 -4.03426e-27 -1.19479e-28 3.05859e-28 1.1214e-28 1.15574e-29 -4.98981e-30 -2.28908e-30 -2.85521e-31 7.83117e-32 3.83456e-32 4.42515e-33 -1.27709e-33 -5.41882e-34 -4.44401e-35 2.02275e-35 6.32779e-36 1.76454e-37 -2.78727e-37 -5.7499e-38 3.11985e-39 3.08823e-39 3.51249e-40 -7.73177e-41 -2.59119e-41 -6.11235e-43 8.48554e-43 9.10643e-44 0 -0 0 0 0 0 0 0 0 0 0 0 0 0 0 0 0 0 0 0 0 0 0 0 0 0 0 0 0 
0 0 0 0 0 0 0 0 0 0 0 0 0 0 0 0 0 0 0 0 0 0 0 0 0 0 0 -0 0 1.65882e-43 1.05335e-42 -1.83576e-42 -3.90943e-41 -9.62297e-41 6.23018e-40 4.54351e-39 1.74465e-39 -9.71636e-38 -3.9312e-37 6.40676e-37 1.0548e-35 2.63419e-35 -1.07275e-34 -9.02314e-34 -1.46415e-33 1.03428e-32 6.47299e-32 8.02254e-32 -7.1456e-31 -4.02483e-30 -5.35212e-30 3.56997e-29 2.15076e-28 3.97094e-28 -1.08767e-27 -9.16652e-27 -2.48909e-26 -1.47089e-27 2.5454e-25 1.06606e-24 1.99397e-24 -1.38588e-24 -2.29927e-23 -8.44556e-23 -1.72463e-22 -9.15752e-23 8.3189e-22 4.03353e-21 1.12283e-20 2.1341e-20 2.19531e-20 -2.70483e-20 -2.14431e-19 -6.85803e-19 -1.59807e-18 -2.95469e-18 -4.253e-18 -3.92335e-18 1.33632e-18 1.70441e-17 5.07783e-17 1.10883e-16 2.03732e-16 3.29724e-16 4.788e-16 6.26836e-16 7.34452e-16 7.49435e-16 6.1314e-16 2.70063e-16 -3.21246e-16 -1.17825e-15 -2.28773e-15 -3.60396e-15 -5.05188e-15 -6.53486e-15 -7.94522e-15 -9.1758e-15 -1.0131e-14 -1.0736e-14 -1.09431e-14 -1.0736e-14 -1.0131e-14 -9.1758e-15 -7.94522e-15 -6.53486e-15 -5.05188e-15 -3.60396e-15 -2.28773e-15 -1.17825e-15 -3.21246e-16 2.70063e-16 6.1314e-16 7.49435e-16 7.34452e-16 6.26836e-16 4.788e-16 3.29724e-16 2.03732e-16 1.10883e-16 5.07783e-17 1.70441e-17 1.33632e-18 -3.92335e-18 -4.253e-18 -2.95469e-18 -1.59807e-18 -6.85803e-19 -2.14431e-19 -2.70483e-20 2.19531e-20 2.1341e-20 1.12283e-20 4.03353e-21 8.3189e-22 -9.15752e-23 -1.72463e-22 -8.44556e-23 -2.29927e-23 -1.38588e-24 1.99397e-24 1.06606e-24 2.5454e-25 -1.47089e-27 -2.48909e-26 -9.16652e-27 -1.08767e-27 3.97094e-28 2.15076e-28 3.56997e-29 -5.35212e-30 -4.02483e-30 -7.1456e-31 8.02254e-32 6.47299e-32 1.03428e-32 -1.46415e-33 -9.02314e-34 -1.07275e-34 2.63419e-35 1.0548e-35 6.40676e-37 -3.9312e-37 -9.71636e-38 1.74465e-39 4.54351e-39 6.23018e-40 -9.62297e-41 -3.90943e-41 -1.83576e-42 1.05335e-42 1.65882e-43 0 -0 0 0 0 0 0 0 0 0 0 0 0 0 0 0 0 0 0 0 0 0 0 0 0 0 0 0 
0 0 0 0 0 0 0 0 0 0 0 0 0 0 0 0 0 0 0 0 0 0 0 0 0 0 -0 0 2.71417e-43 1.60773e-42 -3.46749e-42 -5.60614e-41 -1.12072e-40 1.01665e-39 6.36116e-39 -1.57601e-39 -1.53559e-37 -5.21055e-37 1.46443e-36 1.64596e-35 3.06738e-35 -2.14628e-34 -1.39751e-33 -1.25357e-33 2.05323e-32 1.00363e-31 3.92952e-32 -1.48235e-30 -6.38895e-30 -2.6243e-30 8.25893e-29 3.64263e-28 3.43969e-28 -3.31493e-27 -1.76288e-26 -3.22958e-26 6.79489e-26 6.28306e-25 1.88462e-24 1.59034e-24 -1.11439e-23 -6.0656e-23 -1.57809e-22 -1.65911e-22 5.26698e-22 3.40998e-21 1.04718e-20 2.06406e-20 1.88627e-20 -4.58412e-20 -2.88202e-19 -8.89882e-19 -2.00114e-18 -3.41077e-18 -3.84197e-18 1.5464e-19 1.54193e-17 5.26974e-17 1.25086e-16 2.42852e-16 4.03637e-16 5.78655e-16 6.97793e-16 6.38708e-16 2.25899e-16 -7.5554e-16 -2.53053e-15 -5.29292e-15 -9.16153e-15 -1.41443e-14 -2.01205e-14 -2.68477e-14 -3.39903e-14 -4.11669e-14 -4.80004e-14 -5.41641e-14 -5.94094e-14 -6.35751e-14 -6.65756e-14 -6.83789e-14 -6.89799e-14 -6.83789e-14 -6.65756e-14 -6.35751e-14 -5.94094e-14 -5.41641e-14 -4.80004e-14 -4.11669e-14 -3.39903e-14 -2.68477e-14 -2.01205e-14 -1.41443e-14 -9.16153e-15 -5.29292e-15 -2.53053e-15 -7.5554e-16 2.25899e-16 6.38708e-16 6.97793e-16 5.78655e-16 4.03637e-16 2.42852e-16 1.25086e-16 5.26974e-17 1.54193e-17 1.5464e-19 -3.84197e-18 -3.41077e-18 -2.00114e-18 -8.89882e-19 -2.88202e-19 -4.58412e-20 1.88627e-20 2.06406e-20 1.04718e-20 3.40998e-21 5.26698e-22 -1.65911e-22 -1.57809e-22 -6.0656e-23 -1.11439e-23 1.59034e-24 1.88462e-24 6.28306e-25 6.79489e-26 -3.22958e-26 -1.76288e-26 -3.31493e-27 3.43969e-28 3.64263e-28 8.25893e-29 -2.6243e-30 -6.38895e-30 -1.48235e-30 3.92952e-32 1.00363e-31 2.05323e-32 -1.25357e-33 -1.39751e-33 -2.14628e-34 3.06738e-35 1.64596e-35 1.46443e-36 -5.21055e-37 -1.53559e-37 -1.57601e-39 6.36116e-39 1.01665e-39 -1.12072e-40 -5.60614e-41 -3.46749e-42 1.60773e-42 2.71417e-43 0 -0 0 0 0 0 0 0 0 0 0 0 0 0 0 0 0 0 0 0 0 0 0 0 0 0 0 
0 0 0 0 0 0 0 0 0 0 0 0 0 0 0 0 0 0 0 0 0 0 0 0 -0 -0 0 3.89759e-43 2.00428e-42 -5.69798e-42 -7.70226e-41 -1.21529e-40 1.54964e-39 8.50529e-39 -7.59889e-39 -2.28922e-37 -6.49237e-37 2.77009e-36 2.42136e-35 3.05889e-35 -3.8148e-34 -2.02556e-33 -2.82612e-34 3.6475e-32 1.43553e-31 -8.27195e-32 -2.71642e-30 -9.18179e-30 6.41451e-30 1.62427e-28 5.48374e-28 -6.95467e-29 -7.55868e-27 -2.94687e-26 -2.67198e-26 2.36134e-25 1.26329e-24 2.65831e-24 -1.95079e-24 -3.40185e-23 -1.23271e-22 -2.12234e-22 1.5488e-22 2.35509e-21 8.6598e-21 1.89888e-20 1.90476e-20 -4.58131e-20 -3.05464e-19 -9.65237e-19 -2.1514e-18 -3.3827e-18 -2.41532e-18 6.57356e-18 3.47967e-17 9.87207e-17 2.14547e-16 3.83141e-16 5.62669e-16 6.30886e-16 3.46457e-16 -6.735e-16 -2.93881e-15 -7.01817e-15 -1.34154e-14 -2.24082e-14 -3.3889e-14 -4.72564e-14 -6.14041e-14 -7.483e-14 -8.58599e-14 -9.2945e-14 -9.49674e-14 -9.14904e-14 -8.28897e-14 -7.03408e-14 -5.56578e-14 -4.10181e-14 -2.86201e-14 -2.03394e-14 -1.7432e-14 -2.03394e-14 -2.86201e-14 -4.10181e-14 -5.56578e-14 -7.03408e-14 -8.28897e-14 -9.14904e-14 -9.49674e-14 -9.2945e-14 -8.58599e-14 -7.483e-14 -6.14041e-14 -4.72564e-14 -3.3889e-14 -2.24082e-14 -1.34154e-14 -7.01817e-15 -2.93881e-15 -6.735e-16 3.46457e-16 6.30886e-16 5.62669e-16 3.83141e-16 2.14547e-16 9.87207e-17 3.47967e-17 6.57356e-18 -2.41532e-18 -3.3827e-18 -2.1514e-18 -9.65237e-19 -3.05464e-19 -4.58131e-20 1.90476e-20 1.89888e-20 8.6598e-21 2.35509e-21 1.5488e-22 -2.12234e-22 -1.23271e-22 -3.40185e-23 -1.95079e-24 2.65831e-24 1.26329e-24 2.36134e-25 -2.67198e-26 -2.94687e-26 -7.55868e-27 -6.95467e-29 5.48374e-28 1.62427e-28 6.41451e-30 -9.18179e-30 -2.71642e-30 -8.27195e-32 1.43553e-31 3.6475e-32 -2.82612e-34 -2.02556e-33 -3.8148e-34 3.05889e-35 2.42136e-35 2.77009e-36 -6.49237e-37 -2.28922e-37 -7.59889e-39 8.50529e-39 1.54964e-39 -1.21529e-40 -7.70226e-41 -5.69798e-42 2.00428e-42 3.89665e-43 0 -0 -0 0 0 0 0 0 0 0 0 0 0 0 0 0 0 0 0 0 0 0 0 0 0 0 
0 0 0 0 0 0 0 0 0 0 0 0 0 0 0 0 0 0 0 0 0 0 0 -0 -0 0 5.59825e-43 2.35182e-42 -8.75994e-42 -1.01434e-40 -1.21353e-40 2.22837e-39 1.08976e-38 -1.69747e-38 -3.23941e-37 -7.59742e-37 4.66423e-36 3.37652e-35 2.28439e-35 -6.2099e-34 -2.7594e-33 1.89552e-33 5.94528e-32 1.89545e-31 -3.34525e-31 -4.52548e-30 -1.18824e-29 2.61225e-29 2.84294e-28 7.28769e-28 -1.16672e-27 -1.45928e-26 -4.29952e-26 1.08785e-26 5.62753e-25 2.16267e-24 2.62066e-24 -1.20916e-23 -7.64188e-23 -2.00476e-22 -1.31848e-22 1.20849e-21 6.16417e-21 1.6211e-20 2.11614e-20 -2.85056e-20 -2.63559e-19 -9.02819e-19 -2.06731e-18 -3.08561e-18 -8.93653e-19 1.25325e-17 5.2499e-17 1.39867e-16 2.8804e-16 4.69298e-16 5.5412e-16 2.2908e-16 -1.07968e-15 -4.22574e-15 -1.02386e-14 -2.00429e-14 -3.3993e-14 -5.12941e-14 -6.9456e-14 -8.39792e-14 -8.84567e-14 -7.51918e-14 -3.62892e-14 3.49558e-14 1.42653e-13 2.8722e-13 4.64825e-13 6.67482e-13 8.83781e-13 1.10009e-12 1.30195e-12 1.47553e-12 1.60884e-12 1.69267e-12 1.72126e-12 1.69267e-12 1.60884e-12 1.47553e-12 1.30195e-12 1.10009e-12 8.83781e-13 6.67482e-13 4.64825e-13 2.8722e-13 1.42653e-13 3.49558e-14 -3.62892e-14 -7.51918e-14 -8.84567e-14 -8.39792e-14 -6.9456e-14 -5.12941e-14 -3.3993e-14 -2.00429e-14 -1.02386e-14 -4.22574e-15 -1.07968e-15 2.2908e-16 5.5412e-16 4.69298e-16 2.8804e-16 1.39867e-16 5.2499e-17 1.25325e-17 -8.93653e-19 -3.08561e-18 -2.06731e-18 -9.02819e-19 -2.63559e-19 -2.85056e-20 2.11614e-20 1.6211e-20 6.16417e-21 1.20849e-21 -1.31848e-22 -2.00476e-22 -7.64188e-23 -1.20916e-23 2.62066e-24 2.16267e-24 5.62753e-25 1.08785e-26 -4.29952e-26 -1.45928e-26 -1.16672e-27 7.28769e-28 2.84294e-28 2.61225e-29 -1.18824e-29 -4.52548e-30 -3.34525e-31 1.89545e-31 5.94528e-32 1.89552e-33 -2.7594e-33 -6.2099e-34 2.28439e-35 3.37652e-35 4.66423e-36 -7.59742e-37 -3.23941e-37 -1.69747e-38 1.08976e-38 2.22837e-39 -1.21353e-40 -1.01434e-40 -8.75994e-42 2.34847e-42 5.26453e-43 0 -0 -0 0 0 0 0 0 0 0 0 0 0 0 0 0 0 0 0 0 0 0 0 0 0 
0 0 0 0 0 0 0 0 0 0 0 0 0 0 0 0 0 0 0 0 0 0 -0 -0 4.17298e-45 7.21969e-43 2.99499e-42 -1.23653e-41 -1.28459e-40 -1.09361e-40 3.0433e-39 1.34254e-38 -3.00831e-38 -4.3729e-37 -8.32737e-37 7.21288e-36 4.48379e-35 4.05992e-36 -9.41484e-34 -3.54445e-33 5.75327e-33 9.02201e-32 2.30236e-31 -7.69647e-31 -6.96521e-30 -1.35935e-29 6.15717e-29 4.52861e-28 8.30888e-28 -3.35847e-27 -2.4944e-26 -5.3782e-26 1.08331e-25 1.10481e-24 3.18135e-24 3.4374e-25 -3.33433e-23 -1.40896e-22 -2.5033e-22 3.02396e-22 3.54135e-21 1.22099e-20 2.19311e-20 -4.2499e-21 -1.8281e-19 -7.34994e-19 -1.81728e-18 -2.76241e-18 -1.71989e-19 1.5306e-17 6.17843e-17 1.62399e-16 3.22296e-16 4.68556e-16 3.40276e-16 -6.57731e-16 -3.57113e-15 -9.8472e-15 -2.09375e-14 -3.73915e-14 -5.74152e-14 -7.51141e-14 -7.89147e-14 -5.08517e-14 3.26296e-14 1.98012e-13 4.70389e-13 8.68278e-13 1.39878e-12 2.05439e-12 2.81245e-12 3.63748e-12 4.48602e-12 5.31279e-12 6.07682e-12 6.74614e-12 7.29994e-12 7.72845e-12 8.03032e-12 8.20881e-12 8.26774e-12 8.20881e-12 8.03032e-12 7.72845e-12 7.29994e-12 6.74614e-12 6.07682e-12 5.31279e-12 4.48602e-12 3.63748e-12 2.81245e-12 2.05439e-12 1.39878e-12 8.68278e-13 4.70389e-13 1.98012e-13 3.26296e-14 -5.08517e-14 -7.89147e-14 -7.51141e-14 -5.74152e-14 -3.73915e-14 -2.09375e-14 -9.8472e-15 -3.57113e-15 -6.57731e-16 3.40276e-16 4.68556e-16 3.22296e-16 1.62399e-16 6.17843e-17 1.5306e-17 -1.71989e-19 -2.76241e-18 -1.81728e-18 -7.34994e-19 -1.8281e-19 -4.2499e-21 2.19311e-20 1.22099e-20 3.54135e-21 3.02396e-22 -2.5033e-22 -1.40896e-22 -3.33433e-23 3.4374e-25 3.18135e-24 1.10481e-24 1.08331e-25 -5.3782e-26 -2.4944e-26 -3.35847e-27 8.30888e-28 4.52861e-28 6.15717e-29 -1.35935e-29 -6.96521e-30 -7.69647e-31 2.30236e-31 9.02201e-32 5.75327e-33 -3.54445e-33 -9.41484e-34 4.05992e-36 4.48379e-35 7.21288e-36 -8.32737e-37 -4.3729e-37 -3.00831e-38 1.34254e-38 3.0433e-39 -1.09361e-40 -1.2848e-40 -1.23289e-41 2.93917e-42 7.21969e-43 4.17298e-45 -0 -0 0 0 0 0 0 0 0 0 0 0 0 0 0 0 0 0 0 0 0 0 0 
0 0 0 0 0 0 0 0 0 0 0 0 0 0 0 0 0 0 0 0 0 -0 -0 1.39251e-44 8.81618e-43 3.34562e-42 -1.65024e-41 -1.5722e-40 -8.49901e-41 3.96745e-39 1.59568e-38 -4.68864e-38 -5.65465e-37 -8.5034e-37 1.04189e-35 5.69333e-35 -2.86175e-35 -1.34375e-33 -4.30292e-33 1.17034e-32 1.28712e-31 2.5473e-31 -1.43738e-30 -1.00065e-29 -1.30747e-29 1.17738e-28 6.64949e-28 7.4258e-28 -7.08553e-27 -3.85595e-26 -5.40109e-26 2.99685e-25 1.89187e-24 3.94127e-24 -6.29602e-24 -7.0126e-23 -2.19816e-22 -1.83315e-22 1.40851e-21 7.60129e-21 1.91423e-20 1.50517e-20 -9.37675e-20 -5.13073e-19 -1.45993e-18 -2.47798e-18 -4.66212e-19 1.39778e-17 6.00023e-17 1.61618e-16 3.15668e-16 4.03702e-16 2.48364e-17 -1.72565e-15 -6.39615e-15 -1.59385e-14 -3.16507e-14 -5.189e-14 -6.848e-14 -6.24182e-14 -3.57395e-16 1.65996e-13 4.9546e-13 1.04684e-12 1.86311e-12 2.95349e-12 4.27815e-12 5.74117e-12 7.1951e-12 8.45899e-12 9.34679e-12 9.70108e-12 9.42475e-12 8.50415e-12 7.01788e-12 5.13028e-12 3.06983e-12 1.09713e-12 -5.32292e-13 -1.60472e-12 -1.97872e-12 -1.60472e-12 -5.32292e-13 1.09713e-12 3.06983e-12 5.13028e-12 7.01788e-12 8.50415e-12 9.42475e-12 9.70108e-12 9.34679e-12 8.45899e-12 7.1951e-12 5.74117e-12 4.27815e-12 2.95349e-12 1.86311e-12 1.04684e-12 4.9546e-13 1.65996e-13 -3.57395e-16 -6.24182e-14 -6.848e-14 -5.189e-14 -3.16507e-14 -1.59385e-14 -6.39615e-15 -1.72565e-15 2.48364e-17 4.03702e-16 3.15668e-16 1.61618e-16 6.00023e-17 1.39778e-17 -4.66212e-19 -2.47798e-18 -1.45993e-18 -5.13073e-19 -9.37675e-20 1.50517e-20 1.91423e-20 7.60129e-21 1.40851e-21 -1.83315e-22 -2.19816e-22 -7.0126e-23 -6.29602e-24 3.94127e-24 1.89187e-24 2.99685e-25 -5.40109e-26 -3.85595e-26 -7.08553e-27 7.4258e-28 6.64949e-28 1.17738e-28 -1.30747e-29 -1.00065e-29 -1.43738e-30 2.5473e-31 1.28712e-31 1.17034e-32 -4.30292e-33 -1.34375e-33 -2.86175e-35 5.69333e-35 1.04189e-35 -8.5034e-37 -5.65465e-37 -4.68864e-38 1.59568e-38 3.96744e-39 -8.49232e-41 -1.56359e-40 -1.64081e-41 3.29826e-42 8.81618e-43 1.39251e-44 -0 -0 0 0 0 0 0 0 0 0 0 0 0 0 0 0 0 0 0 0 0 0 
0 0 0 0 0 0 0 0 0 0 0 0 0 0 0 0 0 0 0 0 -0 -0 2.09053e-44 1.04279e-42 3.7606e-42 -2.08233e-41 -1.86032e-40 -5.00691e-41 4.9575e-39 1.83616e-38 -6.68407e-38 -7.02997e-37 -8.00827e-37 1.4208e-35 6.93905e-35 -7.68083e-35 -1.81936e-33 -4.94522e-33 2.00031e-32 1.73879e-31 2.50848e-31 -2.372e-30 -1.35174e-29 -8.88351e-30 1.98437e-28 9.07104e-28 3.2287e-28 -1.27273e-26 -5.45035e-26 -3.25806e-26 6.19143e-25 2.89615e-24 3.77905e-24 -1.98945e-23 -1.24766e-22 -2.88403e-22 1.44153e-22 3.53872e-21 1.33174e-20 2.26819e-20 -2.34839e-20 -2.92322e-19 -1.0439e-18 -2.14068e-18 -1.29514e-18 9.67822e-18 4.91311e-17 1.41575e-16 2.81922e-16 3.27328e-16 -2.21058e-16 -2.51382e-15 -8.50036e-15 -2.03762e-14 -3.845e-14 -5.65259e-14 -5.46085e-14 9.58125e-15 2.06373e-13 6.3119e-13 1.38657e-12 2.54569e-12 4.1e-12 5.90161e-12 7.61758e-12 8.71499e-12 8.49206e-12 6.15877e-12 9.57191e-13 -7.70028e-12 -2.01039e-11 -3.61592e-11 -5.53559e-11 -7.68008e-11 -9.93041e-11 -1.21502e-10 -1.41994e-10 -1.59466e-10 -1.72801e-10 -1.81153e-10 -1.83996e-10 -1.81153e-10 -1.72801e-10 -1.59466e-10 -1.41994e-10 -1.21502e-10 -9.93041e-11 -7.68008e-11 -5.53559e-11 -3.61592e-11 -2.01039e-11 -7.70028e-12 9.57191e-13 6.15877e-12 8.49206e-12 8.71499e-12 7.61758e-12 5.90161e-12 4.1e-12 2.54569e-12 1.38657e-12 6.3119e-13 2.06373e-13 9.58125e-15 -5.46085e-14 -5.65259e-14 -3.845e-14 -2.03762e-14 -8.50036e-15 -2.51382e-15 -2.21058e-16 3.27328e-16 2.81922e-16 1.41575e-16 4.91311e-17 9.67822e-18 -1.29514e-18 -2.14068e-18 -1.0439e-18 -2.92322e-19 -2.34839e-20 2.26819e-20 1.33174e-20 3.53872e-21 1.44153e-22 -2.88403e-22 -1.24766e-22 -1.98945e-23 3.77905e-24 2.89615e-24 6.19143e-25 -3.25806e-26 -5.45035e-26 -1.27273e-26 3.2287e-28 9.07104e-28 1.98437e-28 -8.88351e-30 -1.35174e-29 -2.372e-30 2.50848e-31 1.73879e-31 2.00031e-32 -4.94522e-33 -1.81936e-33 -7.68083e-35 6.93905e-35 1.4208e-35 -8.00828e-37 -7.02997e-37 -6.68407e-38 1.83617e-38 4.95828e-39 -4.81763e-41 -1.8484e-40 -2.07815e-41 3.73829e-42 1.04279e-42 2.09053e-44 -0 -0 0 0 0 0 0 0 0 0 0 0 0 0 0 0 0 0 0 0 0 