<?xml version="1.0"?>
<VTKFile type="ImageData" version="0.1" byte_order="LittleEndian">
<ImageData WholeExtent="0 199 0 199 0 0" Origin="0 0 0" Spacing="15 15 0">
<Piece Extent="0 199 0 199 0 0">
<PointData Scalars="Amplitude">
<DataArray type="Float32" Name="Amplitude" format="ascii">
0 0 0 0 0 0 0 0 0 0 0 0 0 0 0 0 0 0 0 0 0 0 0 0 0 0 0 0 0 0 0 0 0 0 0 0 0 0 0 0 0 0 0 0 0 0 0 0 0 0 0 0 0 0 0 0 0 0 0 0 0 0 0 0 0 0 0 0 0 0 0 0 0 0 0 0 0 0 0 0 0 0 0 0 0 0 0 0 0 0 0 0 0 0 0 0 0 0 0 0 0 0 0 0 0 0 0 0 0 0 0 0 0 0 0 0 0 0 0 0 0 0 0 0 0 0 0 0 0 0 0 0 0 0 0 0 0 0 0 0 0 0 0 0 0 0 0 0 0 0 0 0 0 0 0 0 0 0 0 0 0 0 0 0 0 0 0 0 0 0 0 0 0 0 0 0 0 0 0 0 0 0 0 0 0 0 0 0 0 0 0 0 0 0 0 0 0 0 0 0 
0 0 0 0 0 0 0 0 0 0 0 0 0 0 0 0 0 0 0 0 0 0 0 0 0 0 0 0 0 0 0 0 0 0 0 0 0 0 0 0 0 0 0 0 0 0 0 0 0 0 0 0 0 0 0 0 0 0 0 0 0 0 0 0 0 0 0 0 0 0 0 0 0 0 0 0 0 0 0 0 0 0 0 0 0 0 0 0 0 0 0 0 0 0 0 0 0 0 0 0 0 0 0 0 0 0 0 0 0 0 0 0 0 0 0 0 0 0 0 0 0 0 0 0 0 0 0 0 0 0 0 0 0 0 0 0 0 0 0 0 0 0 0 0 0 0 0 0 0 0 0 0 0 0 0 0 0 0 0 0 0 0 0 0 0 0 0 0 0 0 0 0 0 0 0 0 0 0 0 0 0 0 0 0 0 0 0 0 0 0 0 0 0 0 0 0 0 0 0 0 
0 0 0 0 0 0 0 0 0 0 0 0 0 0 0 0 0 0 0 0 0 0 -0 -3.67702e-43 -3.17963e-42 -3.95477e-42 5.89238e-41 3.00687e-40 -1.89975e-40 -7.06659e-39 -2.20375e-38 6.03747e-38 6.54283e-37 1.30085e-36 -7.1571e-36 -5.03123e-35 -6.72254e-35 5.88766e-34 3.36003e-33 3.7104e-33 -3.68674e-32 -1.99062e-31 -2.57109e-31 1.7273e-30 1.02971e-29 1.90297e-29 -5.09189e-29 -4.33147e-28 -1.1773e-27 -2.36599e-29 1.24386e-26 5.16565e-26 9.20112e-26 -1.05461e-25 -1.27973e-24 -4.45527e-24 -8.00495e-24 2.23703e-24 7.15741e-23 2.84891e-22 6.85275e-22 9.15201e-22 -6.80742e-22 -8.49011e-21 -3.03851e-20 -7.36832e-20 -1.27792e-19 -1.21984e-19 1.47274e-19 1.09838e-18 3.37843e-18 7.65141e-18 1.39383e-17 2.03078e-17 2.0907e-17 3.72103e-18 -5.10036e-17 -1.70253e-16 -3.8411e-16 -7.16961e-16 -1.17424e-15 -1.72667e-15 -2.29567e-15 -2.74451e-15 -2.87973e-15 -2.46527e-15 -1.2492e-15 1.00055e-15 4.45762e-15 9.20297e-15 1.5202e-14 2.2297e-14 3.02162e-14 3.85982e-14 4.70248e-14 5.50589e-14 6.22792e-14 6.83112e-14 7.28471e-14 7.56606e-14 7.66138e-14 7.56606e-14 7.28471e-14 6.83112e-14 6.22792e-14 5.50589e-14 4.70248e-14 3.85982e-14 3.02162e-14 2.2297e-14 1.5202e-14 9.20297e-15 4.45762e-15 1.00055e-15 -1.2492e-15 -2.46527e-15 -2.87973e-15 -2.74451e-15 -2.29567e-15 -1.72667e-15 -1.17424e-15 -7.16961e-16 -3.8411e-16 -1.70253e-16 -5.10036e-17 3.72103e-18 2.0907e-17 2.03078e-17 1.39383e-17 7.65141e-18 3.37843e-18 1.09838e-18 1.47274e-19 -1.21984e-19 -1.27792e-19 -7.36832e-20 -3.03851e-20 -8.49011e-21 -6.80742e-22 9.15201e-22 6.85275e-22 2.84891e-22 7.15741e-23 2.23703e-24 -8.00495e-24 -4.45527e-24 -1.27973e-24 -1.05461e-25 9.20112e-26 5.16565e-26 1.24386e-26 -2.36599e-29 -1.1773e-27 -4.33147e-28 -5.09189e-29 1.90297e-29 1.02971e-29 1.7273e-30 -2.57109e-31 -1.99062e-31 -3.68674e-32 3.7104e-33 3.36003e-33 5.88766e-34 -6.72254e-35 -5.03123e-35 -7.1571e-36 1.30085e-36 6.54283e-37 6.03747e-38 -2.20375e-38 -7.06655e-39 -1.9041e-40 2.98257e-40 5.84697e-41 -3.94527e-42 -3.17963e-42 -3.67702e-43 -0 0 0 0 0 0 0 0 0 0 0 0 0 0 0 0 0 0 0 0 0 0 
0 0 0 0 0 0 0 0 0 0 0 0 0 0 0 0 0 0 0 0 5.01789e-44 2.3977e-43 -3.9469e-43 -7.33263e-42 -1.71938e-41 1.09298e-40 7.80869e-40 3.98375e-40 -1.5332e-38 -6.41353e-38 7.71667e-38 1.55333e-36 4.26891e-36 -1.31263e-35 -1.26652e-34 -2.46157e-34 1.23019e-33 8.7656e-33 1.38815e-32 -8.25732e-32 -5.28843e-31 -8.63646e-31 4.0348e-30 2.763e-29 5.68743e-29 -1.21647e-28 -1.18025e-27 -3.33927e-27 -2.3489e-28 3.53309e-26 1.47501e-25 2.53197e-25 -3.7781e-25 -3.93276e-24 -1.30736e-23 -2.10093e-23 1.99142e-23 2.51398e-22 9.07158e-22 1.96794e-21 1.85116e-21 -5.56974e-21 -3.49315e-20 -1.0848e-19 -2.33332e-19 -3.2532e-19 -4.48844e-20 1.44593e-18 5.65841e-18 1.44801e-17 2.86898e-17 4.44214e-17 4.70921e-17 3.58199e-18 -1.44342e-16 -4.7976e-16 -1.09617e-15 -2.06234e-15 -3.36437e-15 -4.83092e-15 -6.05756e-15 -6.35337e-15 -4.73586e-15 7.02057e-18 9.18293e-15 2.40037e-14 4.53699e-14 7.36749e-14 1.08674e-13 1.49448e-13 1.94482e-13 2.4183e-13 2.89345e-13 3.34934e-13 3.76766e-13 4.13416e-13 4.43927e-13 4.67778e-13 4.84774e-13 4.94925e-13 4.98297e-13 4.94925e-13 4.84774e-13 4.67778e-13 4.43927e-13 4.13416e-13 3.76766e-13 3.34934e-13 2.89345e-13 2.4183e-13 1.94482e-13 1.49448e-13 1.08674e-13 7.36749e-14 4.53699e-14 2.40037e-14 9.18293e-15 7.02057e-18 -4.73586e-15 -6.35337e-15 -6.05756e-15 -4.83092e-15 -3.36437e-15 -2.06234e-15 -1.09617e-15 -4.7976e-16 -1.44342e-16 3.58199e-18 4.70921e-17 4.44214e-17 2.86898e-17 1.44801e-17 5.65841e-18 1.44593e-18 -4.48844e-20 -3.2532e-19 -2.33332e-19 -1.0848e-19 -3.49315e-20 -5.56974e-21 1.85116e-21 1.96794e-21 9.07158e-22 2.51398e-22 1.99142e-23 -2.10093e-23 -1.30736e-23 -3.93276e-24 -3.7781e-25 2.53197e-25 1.47501e-25 3.53309e-26 -2.3489e-28 -3.33927e-27 -1.18025e-27 -1.21647e-28 5.68743e-29 2.763e-29 4.0348e-30 -8.63646e-31 -5.28843e-31 -8.25732e-32 1.38815e-32 8.7656e-33 1.23019e-33 -2.46157e-34 -1.26652e-34 -1.31263e-35 4.26891e-36 1.55333e-36 7.71669e-38 -6.41358e-38 -1.5337e-38 3.85719e-40 7.74507e-40 1.08514e-40 -1.70878e-41 -7.28398e-42 -3.8832e-43 2.38553e-43 5.00824e-44 0 0 0 0 0 0 0 0 0 0 0 0 0 0 0 0 0 0 0 
0 0 0 0 0 0 0 0 0 0 0 0 0 0 0 0 0 -0 -0 0 3.10614e-43 6.52918e-43 -4.58736e-42 -3.29765e-41 -8.71802e-42 7.31448e-40 2.80392e-39 -5.93312e-39 -8.10651e-38 -1.71113e-37 1.00949e-36 7.0576e-36 6.82139e-36 -1.05251e-34 -5.15524e-34 -1.01842e-34 8.32754e-33 3.3307e-32 -4.81998e-33 -5.29921e-31 -1.97692e-30 -7.78183e-32 2.71178e-29 1.07702e-28 7.56265e-29 -1.04128e-27 -5.07546e-27 -8.37967e-27 2.2632e-26 1.82018e-25 5.1154e-25 2.97673e-25 -3.65693e-24 -1.79401e-23 -4.25471e-23 -2.55368e-23 2.41236e-22 1.21577e-21 3.28465e-21 4.93802e-21 -2.27953e-21 -4.24233e-20 -1.59958e-19 -3.92809e-19 -6.52193e-19 -4.23836e-19 1.7413e-18 8.73219e-18 2.46218e-17 5.21148e-17 8.55725e-17 9.79501e-17 2.25682e-17 -2.64089e-16 -9.45286e-16 -2.23347e-15 -4.28676e-15 -7.06252e-15 -1.01191e-14 -1.24038e-14 -1.20923e-14 -6.55412e-15 7.49243e-15 3.36111e-14 7.50976e-14 1.3434e-13 2.12224e-13 3.07729e-13 4.17818e-13 5.37691e-13 6.61351e-13 7.82393e-13 8.94863e-13 9.94014e-13 1.07683e-12 1.1422e-12 1.19077e-12 1.22449e-12 1.24591e-12 1.25756e-12 1.26123e-12 1.25756e-12 1.24591e-12 1.22449e-12 1.19077e-12 1.1422e-12 1.07683e-12 9.94014e-13 8.94863e-13 7.82393e-13 6.61351e-13 5.37691e-13 4.17818e-13 3.07729e-13 2.12224e-13 1.3434e-13 7.50976e-14 3.36111e-14 7.49243e-15 -6.55412e-15 -1.20923e-14 -1.24038e-14 -1.01191e-14 -7.06252e-15 -4.28676e-15 -2.23347e-15 -9.45286e-16 -2.64089e-16 2.25682e-17 9.79501e-17 8.55725e-17 5.21148e-17 2.46218e-17 8.73219e-18 1.7413e-18 -4.23836e-19 -6.52193e-19 -3.92809e-19 -1.59958e-19 -4.24233e-20 -2.27953e-21 4.93802e-21 3.28465e-21 1.21577e-21 2.41236e-22 -2.55368e-23 -4.25471e-23 -1.79401e-23 -3.65693e-24 2.97673e-25 5.1154e-25 1.82018e-25 2.2632e-26 -8.37967e-27 -5.07546e-27 -1.04128e-27 7.56265e-29 1.07702e-28 2.71178e-29 -7.78183e-32 -1.97692e-30 -5.29921e-31 -4.81998e-33 3.3307e-32 8.32754e-33 -1.01842e-34 -5.15524e-34 -1.05251e-34 6.82138e-36 7.05761e-36 1.00949e-36 -1.71116e-37 -8.10834e-38 -5.93656e-39 2.78041e-39 7.26263e-40 -8.66754e-42 -3.27542e-41 -4.54918e-42 6.50192e-43 3.09252e-43 0 -0 -0 0 0 0 0 0 0 0 0 0 0 0 0 0 0 0 0 
0 0 0 0 0 0 0 0 0 0 0 0 0 0 0 0 -0 -0 4.09124e-45 5.07712e-43 9.21866e-43 -7.91187e-42 -4.97838e-41 1.73709e-41 1.24671e-39 4.03592e-39 -1.33831e-38 -1.3545e-37 -2.05958e-37 2.03513e-36 1.15398e-35 2.81262e-36 -2.07458e-34 -8.21807e-34 6.2293e-34 1.65279e-32 5.20197e-32 -7.03725e-32 -1.08602e-30 -3.10606e-30 3.95264e-30 5.95112e-29 1.78622e-28 -8.5458e-29 -2.62194e-27 -9.38973e-27 -6.46835e-27 8.14142e-26 4.01404e-25 7.72942e-25 -9.30802e-25 -1.1442e-23 -3.86398e-23 -5.67461e-23 1.0158e-22 9.06176e-22 2.98894e-21 5.50251e-21 6.73619e-22 -3.69413e-20 -1.58997e-19 -4.14463e-19 -6.96019e-19 -3.26897e-19 2.67686e-18 1.23177e-17 3.39269e-17 6.90915e-17 1.01875e-16 7.3047e-17 -1.54479e-16 -8.21712e-16 -2.25381e-15 -4.73957e-15 -8.25487e-15 -1.20077e-14 -1.3855e-14 -9.74284e-15 6.58624e-15 4.33349e-14 1.09621e-13 2.13628e-13 3.60143e-13 5.4795e-13 7.67745e-13 1.00119e-12 1.22171e-12 1.39699e-12 1.49311e-12 1.47962e-12 1.33451e-12 1.04842e-12 6.27219e-13 9.24392e-14 -5.20339e-13 -1.16498e-12 -1.78957e-12 -2.34188e-12 -2.77465e-12 -3.05038e-12 -3.14505e-12 -3.05038e-12 -2.77465e-12 -2.34188e-12 -1.78957e-12 -1.16498e-12 -5.20339e-13 9.24392e-14 6.27219e-13 1.04842e-12 1.33451e-12 1.47962e-12 1.49311e-12 1.39699e-12 1.22171e-12 1.00119e-12 7.67745e-13 5.4795e-13 3.60143e-13 2.13628e-13 1.09621e-13 4.33349e-14 6.58624e-15 -9.74284e-15 -1.3855e-14 -1.20077e-14 -8.25487e-15 -4.73957e-15 -2.25381e-15 -8.21712e-16 -1.54479e-16 7.3047e-17 1.01875e-16 6.90915e-17 3.39269e-17 1.23177e-17 2.67686e-18 -3.26897e-19 -6.96019e-19 -4.14463e-19 -1.58997e-19 -3.69413e-20 6.73619e-22 5.50251e-21 2.98894e-21 9.06176e-22 1.0158e-22 -5.67461e-23 -3.86398e-23 -1.1442e-23 -9.30802e-25 7.72942e-25 4.01404e-25 8.14142e-26 -6.46835e-27 -9.38973e-27 -2.62194e-27 -8.5458e-29 1.78622e-28 5.95112e-29 3.95264e-30 -3.10606e-30 -1.08602e-30 -7.03725e-32 5.20197e-32 1.65279e-32 6.2293e-34 -8.21807e-34 -2.07458e-34 2.81264e-36 1.15398e-35 2.03511e-36 -2.05883e-37 -1.34672e-37 -1.33014e-38 4.00781e-39 1.23839e-39 1.72519e-41 -4.94722e-41 -7.85174e-42 9.21866e-43 5.02253e-43 4.09124e-45 -0 -0 0 0 0 0 0 0 0 0 0 0 0 0 0 0 0 
0 0 0 0 0 0 0 0 0 0 0 0 0 0 0 -0 -0 1.36573e-44 6.3564e-43 1.02466e-42 -1.26272e-41 -7.27324e-41 6.58625e-41 2.026e-39 5.66092e-39 -2.6062e-38 -2.18134e-37 -2.22024e-37 3.7651e-36 1.81854e-35 -8.21326e-36 -3.80395e-34 -1.25123e-33 2.26379e-33 3.05255e-32 7.602e-32 -2.18738e-31 -2.05322e-30 -4.45319e-30 1.3764e-29 1.18104e-28 2.66372e-28 -5.60906e-28 -5.70441e-27 -1.55249e-26 7.65751e-27 2.1332e-25 7.74857e-25 8.20616e-25 -4.79e-24 -2.80104e-23 -6.91882e-23 -2.47975e-23 5.22218e-22 2.40897e-21 5.76416e-21 4.8516e-21 -2.43847e-20 -1.39174e-19 -4.09671e-19 -7.53199e-19 -4.23792e-19 2.99167e-18 1.46407e-17 4.14306e-17 8.3913e-17 1.1296e-16 2.4615e-17 -4.20007e-16 -1.63e-15 -4.10427e-15 -8.09568e-15 -1.28761e-14 -1.55555e-14 -9.63766e-15 1.61644e-14 7.80023e-14 1.94859e-13 3.83647e-13 6.51363e-13 9.85278e-13 1.34322e-12 1.64683e-12 1.78051e-12 1.59821e-12 9.38225e-13 -3.55672e-13 -2.41009e-12 -5.29945e-12 -9.02929e-12 -1.35285e-11 -1.86523e-11 -2.41944e-11 -2.99064e-11 -3.55206e-11 -4.0772e-11 -4.54174e-11 -4.92493e-11 -5.21034e-11 -5.38625e-11 -5.44566e-11 -5.38625e-11 -5.21034e-11 -4.92493e-11 -4.54174e-11 -4.0772e-11 -3.55206e-11 -2.99064e-11 -2.41944e-11 -1.86523e-11 -1.35285e-11 -9.02929e-12 -5.29945e-12 -2.41009e-12 -3.55672e-13 9.38225e-13 1.59821e-12 1.78051e-12 1.64683e-12 1.34322e-12 9.85278e-13 6.51363e-13 3.83647e-13 1.94859e-13 7.80023e-14 1.61644e-14 -9.63766e-15 -1.55555e-14 -1.28761e-14 -8.09568e-15 -4.10427e-15 -1.63e-15 -4.20007e-16 2.4615e-17 1.1296e-16 8.3913e-17 4.14306e-17 1.46407e-17 2.99167e-18 -4.23792e-19 -7.53199e-19 -4.09671e-19 -1.39174e-19 -2.43847e-20 4.8516e-21 5.76416e-21 2.40897e-21 5.22218e-22 -2.47975e-23 -6.91882e-23 -2.80104e-23 -4.79e-24 8.20616e-25 7.74857e-25 2.1332e-25 7.65751e-27 -1.55249e-26 -5.70441e-27 -5.60906e-28 2.66372e-28 1.18104e-28 1.3764e-29 -4.45319e-30 -2.05322e-30 -2.18738e-31 7.602e-32 3.05255e-32 2.26379e-33 -1.25123e-33 -3.80395e-34 -8.21328e-36 1.81855e-35 3.76644e-36 -2.18713e-37 -2.16463e-37 -2.58762e-38 5.62432e-39 2.01296e-39 6.53308e-41 -7.21982e-41 -1.2556e-41 1.02466e-42 6.3564e-43 1.36573e-44 -0 -0 0 0 0 0 0 0 0 0 0 0 0 0 0 0 
0 0 0 0 0 0 0 0 0 0 0 0 0 0 -0 -0 3.82867e-44 7.6789e-43 1.02341e-42 -1.91722e-41 -1.00801e-40 1.47997e-40 3.10905e-39 7.50101e-39 -4.62081e-38 -3.3428e-37 -1.80273e-37 6.48096e-36 2.71347e-35 -3.23708e-35 -6.51167e-34 -1.77439e-33 5.51832e-33 5.24641e-32 9.97811e-32 -5.13622e-31 -3.58246e-30 -5.46716e-30 3.4235e-29 2.13365e-28 3.33821e-28 -1.66862e-27 -1.10358e-26 -2.19146e-26 5.11173e-26 4.68962e-25 1.29174e-24 -3.01291e-26 -1.40831e-23 -5.74344e-23 -9.56974e-23 1.57992e-22 1.55114e-21 5.08857e-21 8.00664e-21 -8.64203e-21 -1.00996e-19 -3.60598e-19 -7.71152e-19 -6.66219e-19 2.49368e-18 1.46735e-17 4.45032e-17 9.27817e-17 1.19029e-16 -2.75552e-17 -7.02616e-16 -2.51202e-15 -6.12175e-15 -1.15258e-14 -1.64438e-14 -1.3759e-14 1.1461e-14 8.38193e-14 2.35723e-13 4.98695e-13 8.855e-13 1.36312e-12 1.82043e-12 2.03856e-12 1.6749e-12 2.71489e-13 -2.70534e-12 -7.79446e-12 -1.5448e-11 -2.59352e-11 -3.92631e-11 -5.51335e-11 -7.29504e-11 -9.18796e-11 -1.1095e-10 -1.29183e-10 -1.45717e-10 -1.59916e-10 -1.71432e-10 -1.80218e-10 -1.86489e-10 -1.90641e-10 -1.93147e-10 -1.94444e-10 -1.9484e-10 -1.94444e-10 -1.93147e-10 -1.90641e-10 -1.86489e-10 -1.80218e-10 -1.71432e-10 -1.59916e-10 -1.45717e-10 -1.29183e-10 -1.1095e-10 -9.18796e-11 -7.29504e-11 -5.51335e-11 -3.92631e-11 -2.59352e-11 -1.5448e-11 -7.79446e-12 -2.70534e-12 2.71489e-13 1.6749e-12 2.03856e-12 1.82043e-12 1.36312e-12 8.855e-13 4.98695e-13 2.35723e-13 8.38193e-14 1.1461e-14 -1.3759e-14 -1.64438e-14 -1.15258e-14 -6.12175e-15 -2.51202e-15 -7.02616e-16 -2.75552e-17 1.19029e-16 9.27817e-17 4.45032e-17 1.46735e-17 2.49368e-18 -6.66219e-19 -7.71152e-19 -3.60598e-19 -1.00996e-19 -8.64203e-21 8.00664e-21 5.08857e-21 1.55114e-21 1.57992e-22 -9.56974e-23 -5.74344e-23 -1.40831e-23 -3.01291e-26 1.29174e-24 4.68962e-25 5.11173e-26 -2.19146e-26 -1.10358e-26 -1.66862e-27 3.33821e-28 2.13365e-28 3.4235e-29 -5.46716e-30 -3.58246e-30 -5.13622e-31 9.97811e-32 5.24641e-32 5.51833e-33 -1.77439e-33 -6.51167e-34 -3.23691e-35 2.71361e-35 6.45278e-36 -1.77806e-37 -3.31972e-37 -4.59027e-38 7.45319e-39 3.08946e-39 1.47047e-40 -1.0028e-40 -1.90145e-41 1.02341e-42 7.6789e-43 3.82867e-44 -0 -0 0 0 0 0 0 0 0 0 0 0 0 0 0 
0 0 0 0 0 0 0 0 0 0 0 0 0 -0 -0 6.15917e-44 1.01127e-42 1.18514e-42 -2.70276e-41 -1.33053e-40 2.69551e-40 4.51182e-39 9.38727e-39 -7.57791e-38 -4.88609e-37 -4.02013e-38 1.04808e-35 3.84803e-35 -7.67216e-35 -1.04914e-33 -2.34073e-33 1.12426e-32 8.45915e-32 1.14172e-31 -1.0367e-30 -5.81938e-30 -5.18385e-30 7.19041e-29 3.54719e-28 3.07943e-28 -3.86234e-27 -1.93275e-26 -2.45776e-26 1.50981e-25 9.05523e-25 1.82427e-24 -3.07359e-24 -3.27346e-23 -1.00885e-22 -7.73298e-23 6.8311e-22 3.58723e-21 8.7112e-21 4.67283e-21 -5.5234e-20 -2.72978e-19 -7.1665e-19 -9.36226e-19 1.3481e-18 1.23192e-17 4.22523e-17 9.46888e-17 1.25717e-16 -4.87609e-17 -8.8988e-16 -3.20337e-15 -7.81536e-15 -1.42755e-14 -1.79174e-14 -5.086e-15 5.21768e-14 1.98132e-13 4.85222e-13 9.47359e-13 1.54818e-12 2.10502e-12 2.20212e-12 1.12044e-12 -2.17762e-12 -8.97148e-12 -2.05909e-11 -3.81173e-11 -6.20207e-11 -9.18101e-11 -1.25786e-10 -1.60981e-10 -1.93346e-10 -2.18164e-10 -2.30672e-10 -2.26753e-10 -2.0361e-10 -1.60299e-10 -9.80047e-11 -2.00532e-11 6.83528e-11 1.60649e-10 2.49562e-10 3.27846e-10 3.89001e-10 4.27891e-10 4.41231e-10 4.27891e-10 3.89001e-10 3.27846e-10 2.49562e-10 1.60649e-10 6.83528e-11 -2.00532e-11 -9.80047e-11 -1.60299e-10 -2.0361e-10 -2.26753e-10 -2.30672e-10 -2.18164e-10 -1.93346e-10 -1.60981e-10 -1.25786e-10 -9.18101e-11 -6.20207e-11 -3.81173e-11 -2.05909e-11 -8.97148e-12 -2.17762e-12 1.12044e-12 2.20212e-12 2.10502e-12 1.54818e-12 9.47359e-13 4.85222e-13 1.98132e-13 5.21768e-14 -5.086e-15 -1.79174e-14 -1.42755e-14 -7.81536e-15 -3.20337e-15 -8.8988e-16 -4.87609e-17 1.25717e-16 9.46888e-17 4.22523e-17 1.23192e-17 1.3481e-18 -9.36226e-19 -7.1665e-19 -2.72978e-19 -5.5234e-20 4.67283e-21 8.7112e-21 3.58723e-21 6.8311e-22 -7.73298e-23 -1.00885e-22 -3.27346e-23 -3.07359e-24 1.82427e-24 9.05523e-25 1.50981e-25 -2.45776e-26 -1.93275e-26 -3.86234e-27 3.07943e-28 3.54719e-28 7.19041e-29 -5.18385e-30 -5.81938e-30 -1.0367e-30 1.14172e-31 8.45916e-32 1.12426e-32 -2.34073e-33 -1.04915e-33 -7.67836e-35 3.81996e-35 1.04063e-35 -4.02426e-38 -4.85458e-37 -7.52951e-38 9.32939e-39 4.48417e-39 2.6789e-40 -1.32282e-40 -2.68875e-41 1.17005e-42 9.89341e-43 6.15917e-44 -0 -0 0 0 0 0 0 0 0 0 0 0 0 0 
0 0 0 0 0 0 0 0 0 0 0 0 -0 0 9.04001e-44 1.23155e-42 1.09704e-42 -3.5628e-41 -1.66861e-40 4.29497e-40 6.198e-39 1.11061e-38 -1.15841e-37 -6.8132e-37 2.43352e-37 1.60294e-35 5.20431e-35 -1.49043e-34 -1.60033e-33 -2.86058e-33 2.04103e-32 1.28715e-31 1.04875e-31 -1.88368e-30 -8.85412e-30 -2.07067e-30 1.34702e-28 5.46219e-28 6.44664e-29 -7.72262e-27 -3.09309e-26 -1.57492e-26 3.45111e-25 1.56796e-24 2.02581e-24 -1.04007e-23 -6.51618e-23 -1.51018e-22 7.15271e-23 1.83924e-21 6.93833e-21 1.15133e-20 -1.53102e-20 -1.66825e-19 -5.76759e-19 -1.07466e-18 2.04949e-20 8.3246e-18 3.50739e-17 8.8739e-17 1.33378e-16 -2.03354e-17 -8.96792e-16 -3.47359e-15 -8.76814e-15 -1.59413e-14 -1.76896e-14 7.54777e-15 1.04138e-13 3.40473e-13 7.87511e-13 1.45456e-12 2.16649e-12 2.38607e-12 1.02165e-12 -3.69547e-12 -1.41446e-11 -3.29409e-11 -6.2183e-11 -1.0236e-10 -1.51085e-10 -2.01958e-10 -2.43885e-10 -2.6122e-10 -2.34849e-10 -1.44237e-10 2.98625e-11 3.02466e-10 6.81722e-10 1.16708e-09 1.74853e-09 2.40715e-09 3.11667e-09 3.84583e-09 4.56115e-09 5.22952e-09 5.82051e-09 6.30796e-09 6.6711e-09 6.89495e-09 6.97057e-09 6.89495e-09 6.6711e-09 6.30796e-09 5.82051e-09 5.22952e-09 4.56115e-09 3.84583e-09 3.11667e-09 2.40715e-09 1.74853e-09 1.16708e-09 6.81722e-10 3.02466e-10 2.98625e-11 -1.44237e-10 -2.34849e-10 -2.6122e-10 -2.43885e-10 -2.01958e-10 -1.51085e-10 -1.0236e-10 -6.2183e-11 -3.29409e-11 -1.41446e-11 -3.69547e-12 1.02165e-12 2.38607e-12 2.16649e-12 1.45456e-12 7.87511e-13 3.40473e-13 1.04138e-13 7.54777e-15 -1.76896e-14 -1.59413e-14 -8.76814e-15 -3.47359e-15 -8.96792e-16 -2.03354e-17 1.33378e-16 8.8739e-17 3.50739e-17 8.3246e-18 2.04949e-20 -1.07466e-18 -5.76759e-19 -1.66825e-19 -1.53102e-20 1.15133e-20 6.93833e-21 1.83924e-21 7.15271e-23 -1.51018e-22 -6.51618e-23 -1.04007e-23 2.02581e-24 1.56796e-24 3.45111e-25 -1.57492e-26 -3.09309e-26 -7.72262e-27 6.44664e-29 5.46219e-28 1.34702e-28 -2.07067e-30 -8.85412e-30 -1.88368e-30 1.04875e-31 1.28715e-31 2.04103e-32 -2.86066e-33 -1.60065e-33 -1.4886e-34 5.16238e-35 1.59188e-35 2.41416e-37 -6.77017e-37 -1.15113e-37 1.10402e-38 6.16075e-39 4.26881e-40 -1.65749e-40 -3.54163e-41 1.11077e-42 1.23155e-42 9.04001e-44 0 -0 0 0 0 0 0 0 0 0 0 0 0 
0 0 0 0 0 0 0 0 0 0 0 -0 0 1.06888e-43 1.40383e-42 1.0044e-42 -4.42006e-41 -1.99504e-40 6.1657e-40 8.06596e-39 1.24562e-38 -1.65832e-37 -9.06639e-37 7.08202e-37 2.32721e-35 6.73738e-35 -2.56473e-34 -2.32199e-33 -3.21203e-33 3.39714e-32 1.85734e-31 5.31374e-32 -3.15188e-30 -1.26776e-29 5.94533e-30 2.30975e-28 7.82181e-28 -5.7559e-28 -1.38913e-26 -4.54366e-26 1.69384e-26 6.79061e-25 2.45911e-24 1.23523e-24 -2.48822e-23 -1.14692e-22 -1.84509e-22 4.94677e-22 3.97398e-21 1.14572e-20 8.92451e-21 -7.07949e-20 -3.80496e-19 -9.90261e-19 -9.75036e-19 3.98316e-18 2.47109e-17 7.47303e-17 1.35449e-16 4.56287e-17 -7.15353e-16 -3.22915e-15 -8.76249e-15 -1.64774e-14 -1.72253e-14 1.77456e-14 1.49653e-13 4.72468e-13 1.07108e-12 1.89547e-12 2.516e-12 1.76959e-12 -2.60117e-12 -1.409e-11 -3.70193e-11 -7.52381e-11 -1.29731e-10 -1.95267e-10 -2.56673e-10 -2.85719e-10 -2.39862e-10 -6.38936e-11 3.04935e-10 9.28604e-10 1.85805e-09 3.12285e-09 4.72311e-09 6.62534e-09 8.76375e-09 1.10467e-08 1.33676e-08 1.5618e-08 1.77004e-08 1.95394e-08 2.1088e-08 2.23292e-08 2.32727e-08 2.39469e-08 2.439e-08 2.46383e-08 2.47179e-08 2.46383e-08 2.439e-08 2.39469e-08 2.32727e-08 2.23292e-08 2.1088e-08 1.95394e-08 1.77004e-08 1.5618e-08 1.33676e-08 1.10467e-08 8.76375e-09 6.62534e-09 4.72311e-09 3.12285e-09 1.85805e-09 9.28604e-10 3.04935e-10 -6.38936e-11 -2.39862e-10 -2.85719e-10 -2.56673e-10 -1.95267e-10 -1.29731e-10 -7.52381e-11 -3.70193e-11 -1.409e-11 -2.60117e-12 1.76959e-12 2.516e-12 1.89547e-12 1.07108e-12 4.72468e-13 1.49653e-13 1.77456e-14 -1.72253e-14 -1.64774e-14 -8.76249e-15 -3.22915e-15 -7.15353e-16 4.56287e-17 1.35449e-16 7.47303e-17 2.47109e-17 3.98316e-18 -9.75036e-19 -9.90261e-19 -3.80496e-19 -7.07949e-20 8.92451e-21 1.14572e-20 3.97398e-21 4.94677e-22 -1.84509e-22 -1.14692e-22 -2.48822e-23 1.23523e-24 2.45911e-24 6.79061e-25 1.69384e-26 -4.54366e-26 -1.38913e-26 -5.75588e-28 7.82182e-28 2.30975e-28 5.94534e-30 -1.26776e-29 -3.15188e-30 5.31379e-32 1.85734e-31 3.39711e-32 -3.21057e-33 -2.30901e-33 -2.54871e-34 6.69292e-35 2.31219e-35 7.03483e-37 -9.01033e-37 -1.64807e-37 1.23848e-38 8.01825e-39 6.12899e-40 -1.98358e-40 -4.39393e-41 1.00578e-42 1.40383e-42 1.06888e-43 0 -0 0 0 0 0 0 0 0 0 0 0 
0 0 0 0 0 0 0 0 0 0 -0 0 1.24733e-43 1.52377e-42 8.85294e-43 -5.15513e-41 -2.27661e-40 8.09291e-40 9.94995e-39 1.33165e-38 -2.22959e-37 -1.15217e-36 1.36529e-36 3.21106e-35 8.36566e-35 -4.03779e-34 -3.21743e-33 -3.26103e-33 5.26563e-32 2.55267e-31 -6.17684e-32 -4.92214e-30 -1.71506e-29 2.12727e-29 3.67976e-28 1.04386e-27 -1.83448e-27 -2.29555e-26 -6.13019e-26 9.02786e-26 1.1986e-24 3.50466e-24 -1.57391e-24 -4.98448e-23 -1.81108e-22 -1.548e-22 1.39349e-21 7.38588e-21 1.60152e-20 -7.59926e-21 -1.87452e-19 -7.19425e-19 -1.34994e-18 5.62789e-19 1.38516e-17 5.46291e-17 1.24108e-16 1.14109e-16 -4.19106e-16 -2.54995e-15 -7.80296e-15 -1.59078e-14 -1.76445e-14 1.96859e-14 1.70563e-13 5.52962e-13 1.26486e-12 2.17928e-12 2.52679e-12 2.79956e-13 -8.44341e-12 -2.94404e-11 -6.91409e-11 -1.31104e-10 -2.09782e-10 -2.81959e-10 -2.97601e-10 -1.73212e-10 2.08473e-10 9.89062e-10 2.31377e-09 4.30083e-09 7.00586e-09 1.03887e-08 1.42911e-08 1.8433e-08 2.24303e-08 2.58355e-08 2.81942e-08 2.9109e-08 2.83002e-08 2.5654e-08 2.12486e-08 1.53557e-08 8.41799e-09 1.00442e-09 -6.24825e-09 -1.27011e-08 -1.77767e-08 -2.10182e-08 -2.21323e-08 -2.10182e-08 -1.77767e-08 -1.27011e-08 -6.24825e-09 1.00442e-09 8.41799e-09 1.53557e-08 2.12486e-08 2.5654e-08 2.83002e-08 2.9109e-08 2.81942e-08 2.58355e-08 2.24303e-08 1.8433e-08 1.42911e-08 1.03887e-08 7.00586e-09 4.30083e-09 2.31377e-09 9.89062e-10 2.08473e-10 -1.73212e-10 -2.97601e-10 -2.81959e-10 -2.09782e-10 -1.31104e-10 -6.91409e-11 -2.94404e-11 -8.44341e-12 2.79956e-13 2.52679e-12 2.17928e-12 1.26486e-12 5.52962e-13 1.70563e-13 1.96859e-14 -1.76445e-14 -1.59078e-14 -7.80296e-15 -2.54995e-15 -4.19106e-16 1.14109e-16 1.24108e-16 5.46291e-17 1.38516e-17 5.62789e-19 -1.34994e-18 -7.19425e-19 -1.87452e-19 -7.59926e-21 1.60152e-20 7.38588e-21 1.39349e-21 -1.548e-22 -1.81108e-22 -4.98448e-23 -1.57391e-24 3.50466e-24 1.1986e-24 9.02786e-26 -6.13019e-26 -2.29555e-26 -1.83448e-27 1.04386e-27 3.67977e-28 2.12727e-29 -1.71506e-29 -4.92213e-30 -6.17675e-32 2.5527e-31 5.26753e-32 -3.21689e-33 -3.19376e-33 -4.00942e-34 8.31379e-35 3.19084e-35 1.35635e-36 -1.14521e-36 -2.21606e-37 1.32425e-38 9.89209e-39 8.04485e-40 -2.26408e-40 -5.12072e-41 9.0179e-43 1.52377e-42 1.24733e-43 0 -0 0 0 0 0 0 0 0 0 0 
0 0 0 0 0 0 0 0 0 -0 0 1.24733e-43 1.52945e-42 8.30508e-43 -5.64871e-41 -2.48349e-40 9.78765e-40 1.1641e-38 1.36947e-38 -2.82063e-37 -1.39945e-36 2.18348e-36 4.21287e-35 9.97151e-35 -5.91081e-34 -4.27249e-33 -2.89305e-33 7.67603e-32 3.35496e-31 -2.58406e-31 -7.23834e-30 -2.20019e-29 4.62585e-29 5.50096e-28 1.29895e-27 -3.94812e-27 -3.53013e-26 -7.56694e-26 2.23853e-25 1.93855e-24 4.52489e-24 -7.75156e-24 -8.83943e-23 -2.57865e-22 1.15021e-23 3.0026e-21 1.21476e-20 1.79534e-20 -5.09081e-20 -3.92132e-19 -1.16022e-18 -1.25573e-18 5.13144e-18 3.29179e-17 9.77536e-17 1.50812e-16 -1.21757e-16 -1.6538e-15 -6.1089e-15 -1.41797e-14 -1.86272e-14 1.21424e-14 1.58229e-13 5.56554e-13 1.32569e-12 2.28594e-12 2.34318e-12 -1.46422e-12 -1.48791e-11 -4.62881e-11 -1.03828e-10 -1.87751e-10 -2.76823e-10 -3.09789e-10 -1.6653e-10 3.42524e-10 1.4678e-09 3.4828e-09 6.6127e-09 1.09347e-08 1.62662e-08 2.20675e-08 2.73869e-08 3.08751e-08 3.08797e-08 2.56168e-08 1.33966e-08 -7.13304e-09 -3.67665e-08 -7.55795e-08 -1.2286e-07 -1.7713e-07 -2.36257e-07 -2.97637e-07 -3.58404e-07 -4.15657e-07 -4.66659e-07 -5.08991e-07 -5.40684e-07 -5.6029e-07 -5.66924e-07 -5.6029e-07 -5.40684e-07 -5.08991e-07 -4.66659e-07 -4.15657e-07 -3.58404e-07 -2.97637e-07 -2.36257e-07 -1.7713e-07 -1.2286e-07 -7.55795e-08 -3.67665e-08 -7.13304e-09 1.33966e-08 2.56168e-08 3.08797e-08 3.08751e-08 2.73869e-08 2.20675e-08 1.62662e-08 1.09347e-08 6.6127e-09 3.4828e-09 1.4678e-09 3.42524e-10 -1.6653e-10 -3.09789e-10 -2.76823e-10 -1.87751e-10 -1.03828e-10 -4.62881e-11 -1.48791e-11 -1.46422e-12 2.34318e-12 2.28594e-12 1.32569e-12 5.56554e-13 1.58229e-13 1.21424e-14 -1.86272e-14 -1.41797e-14 -6.1089e-15 -1.6538e-15 -1.21757e-16 1.50812e-16 9.77536e-17 3.29179e-17 5.13144e-18 -1.25573e-18 -1.16022e-18 -3.92132e-19 -5.09081e-20 1.79534e-20 1.21476e-20 3.0026e-21 1.15021e-23 -2.57865e-22 -8.83943e-23 -7.75156e-24 4.52489e-24 1.93855e-24 2.23853e-25 -7.56696e-26 -3.53013e-26 -3.94812e-27 1.29895e-27 5.50095e-28 4.62584e-29 -2.20019e-29 -7.23833e-30 -2.58385e-31 3.35516e-31 7.64393e-32 -2.86122e-33 -4.24392e-33 -5.87209e-34 9.91035e-35 4.18678e-35 2.1694e-36 -1.39116e-36 -2.80379e-37 1.36211e-38 1.15742e-38 9.72978e-40 -2.47007e-40 -5.61153e-41 8.53883e-43 1.52945e-42 1.24733e-43 0 -0 0 0 0 0 0 0 0 0 
0 0 0 0 0 0 0 0 -0 0 1.06888e-43 1.52377e-42 8.30508e-43 -5.82345e-41 -2.59356e-40 1.09547e-39 1.2922e-38 1.37278e-38 -3.36168e-37 -1.62599e-36 3.08286e-36 5.25805e-35 1.14365e-34 -8.1083e-34 -5.44644e-33 -2.04788e-33 1.05959e-31 4.23307e-31 -5.48118e-31 -1.00893e-29 -2.68635e-29 8.26551e-29 7.77271e-28 1.50507e-27 -7.12061e-27 -5.09736e-26 -8.45324e-26 4.36861e-25 2.91061e-24 5.22787e-24 -1.88063e-23 -1.42486e-22 -3.29993e-22 4.10894e-22 5.53891e-21 1.78985e-20 1.2756e-20 -1.36902e-19 -7.01926e-19 -1.59332e-18 -7.86877e-21 1.47712e-17 6.32745e-17 1.43067e-16 8.2918e-17 -8.03632e-16 -4.08417e-15 -1.13598e-14 -1.87154e-14 -7.22374e-16 1.18076e-13 4.83438e-13 1.24515e-12 2.23823e-12 2.19445e-12 -2.58207e-12 -1.9558e-11 -5.96645e-11 -1.32217e-10 -2.31084e-10 -3.09381e-10 -2.44754e-10 1.94093e-10 1.35876e-09 3.68211e-09 7.56225e-09 1.31571e-08 2.0105e-08 2.72217e-08 3.22517e-08 3.17671e-08 2.12898e-08 -4.3259e-09 -5.0277e-08 -1.21047e-07 -2.19631e-07 -3.46901e-07 -5.01243e-07 -6.7855e-07 -8.72583e-07 -1.07563e-06 -1.27936e-06 -1.47568e-06 -1.65755e-06 -1.81945e-06 -1.95773e-06 -2.07043e-06 -2.15703e-06 -2.21795e-06 -2.25403e-06 -2.26596e-06 -2.25403e-06 -2.21795e-06 -2.15703e-06 -2.07043e-06 -1.95773e-06 -1.81945e-06 -1.65755e-06 -1.47568e-06 -1.27936e-06 -1.07563e-06 -8.72583e-07 -6.7855e-07 -5.01243e-07 -3.46901e-07 -2.19631e-07 -1.21047e-07 -5.0277e-08 -4.3259e-09 2.12898e-08 3.17671e-08 3.22517e-08 2.72217e-08 2.0105e-08 1.31571e-08 7.56225e-09 3.68211e-09 1.35876e-09 1.94093e-10 -2.44754e-10 -3.09381e-10 -2.31084e-10 -1.32217e-10 -5.96645e-11 -1.9558e-11 -2.58207e-12 2.19445e-12 2.23823e-12 1.24515e-12 4.83438e-13 1.18076e-13 -7.22374e-16 -1.87154e-14 -1.13598e-14 -4.08417e-15 -8.03632e-16 8.2918e-17 1.43067e-16 6.32745e-17 1.47712e-17 -7.86877e-21 -1.59332e-18 -7.01926e-19 -1.36902e-19 1.2756e-20 1.78985e-20 5.53891e-21 4.10894e-22 -3.29993e-22 -1.42486e-22 -1.88063e-23 5.22787e-24 2.9106e-24 4.3686e-25 -8.45324e-26 -5.09735e-26 -7.12061e-27 1.50507e-27 7.77271e-28 8.26552e-29 -2.68635e-29 -1.00893e-29 -5.48725e-31 4.20485e-31 1.05231e-31 -2.03934e-33 -5.41213e-33 -8.05689e-34 1.1368e-34 5.22608e-35 3.06337e-36 -1.61653e-36 -3.3419e-37 1.3656e-38 1.28488e-38 1.08913e-39 -2.57874e-40 -5.79027e-41 8.53883e-43 1.52377e-42 1.06888e-43 0 -0 0 0 0 0 0 0 0 
0 0 0 0 0 0 0 -0 -0 9.04001e-44 1.40383e-42 8.85294e-43 -5.64871e-41 -2.59356e-40 1.13695e-39 1.36135e-38 1.36231e-38 -3.77743e-37 -1.80865e-36 3.94183e-36 6.24516e-35 1.26656e-34 -1.04641e-33 -6.66473e-33 -7.34769e-34 1.39219e-31 5.14722e-31 -9.30242e-31 -1.33983e-29 -3.13405e-29 1.31062e-28 1.04406e-27 1.61746e-27 -1.14715e-26 -6.95888e-26 -8.33203e-26 7.43887e-25 4.09385e-24 5.23606e-24 -3.61256e-23 -2.11995e-22 -3.73861e-22 1.14992e-21 9.13181e-21 2.36811e-20 -5.78118e-21 -2.81332e-19 -1.10985e-18 -1.7916e-18 3.36883e-18 3.14437e-17 1.03372e-16 1.62416e-16 -1.96445e-16 -2.20505e-15 -7.89127e-15 -1.66757e-14 -1.23064e-14 6.6213e-14 3.57988e-13 1.04471e-12 2.05398e-12 2.19166e-12 -2.50293e-12 -2.06521e-11 -6.53984e-11 -1.473e-10 -2.53213e-10 -3.05523e-10 -1.04666e-10 7.24344e-10 2.73683e-09 6.56041e-09 1.26092e-08 2.05882e-08 2.88274e-08 3.35785e-08 2.8495e-08 4.55919e-09 -4.93236e-08 -1.44968e-07 -2.92891e-07 -4.99935e-07 -7.67013e-07 -1.08749e-06 -1.44663e-06 -1.82245e-06 -2.18785e-06 -2.5138e-06 -2.77316e-06 -2.94434e-06 -3.01441e-06 -2.98103e-06 -2.85299e-06 -2.64929e-06 -2.39701e-06 -2.12804e-06 -1.8755e-06 -1.66993e-06 -1.53596e-06 -1.48946e-06 -1.53596e-06 -1.66993e-06 -1.8755e-06 -2.12804e-06 -2.39701e-06 -2.64929e-06 -2.85299e-06 -2.98103e-06 -3.01441e-06 -2.94434e-06 -2.77316e-06 -2.5138e-06 -2.18785e-06 -1.82245e-06 -1.44663e-06 -1.08749e-06 -7.67013e-07 -4.99935e-07 -2.92891e-07 -1.44968e-07 -4.93236e-08 4.55919e-09 2.8495e-08 3.35785e-08 2.88274e-08 2.05882e-08 1.26092e-08 6.56041e-09 2.73683e-09 7.24344e-10 -1.04666e-10 -3.05523e-10 -2.53213e-10 -1.473e-10 -6.53984e-11 -2.06521e-11 -2.50293e-12 2.19166e-12 2.05398e-12 1.04471e-12 3.57988e-13 6.6213e-14 -1.23064e-14 -1.66757e-14 -7.89127e-15 -2.20505e-15 -1.96445e-16 1.62416e-16 1.03372e-16 3.14437e-17 3.36883e-18 -1.7916e-18 -1.10985e-18 -2.81332e-19 -5.78118e-21 2.36811e-20 9.13181e-21 1.14992e-21 -3.73861e-22 -2.11994e-22 -3.61256e-23 5.23606e-24 4.09385e-24 7.43888e-25 -8.33201e-26 -6.95887e-26 -1.14715e-26 1.61746e-27 1.04406e-27 1.31062e-28 -3.13412e-29 -1.34013e-29 -9.30426e-31 5.10832e-31 1.38276e-31 -7.35588e-34 -6.62347e-33 -1.03987e-33 1.25918e-34 6.20782e-35 3.91737e-36 -1.79828e-36 -3.75549e-37 1.35535e-38 1.35374e-38 1.13063e-39 -2.57896e-40 -5.61332e-41 9.0179e-43 1.40383e-42 9.04001e-44 -0 -0 0 0 0 0 0 0 