<?xml version="1.0"?>
<VTKFile type="ImageData" version="0.1" byte_order="LittleEndian">
<ImageData WholeExtent="0 199 0 199 0 0" Origin="0 0 0" Spacing="15 15 0">
<Piece Extent="0 199 0 199 0 0">
<PointData Scalars="Amplitude">
<DataArray type="Float32" Name="Amplitude" format="ascii">
0 0 0 0 0 0 0 0 0 0 0 0 0 0 0 0 0 0 0 0 0 0 0 0 0 0 0 0 0 0 0 0 0 0 0 0 0 0 0 0 0 0 0 0 0 0 0 0 0 0 0 0 0 0 0 0 0 0 0 0 0 0 0 0 0 0 0 0 0 0 0 0 0 0 0 0 0 0 0 0 0 0 0 0 0 0 0 0 0 0 0 0 0 0 0 0 0 0 0 0 0 0 0 0 0 0 0 0 0 0 0 0 0 0 0 0 0 0 0 0 0 0 0 0 0 0 0 0 0 0 0 0 0 0 0 0 0 0 0 0 0 0 0 0 0 0 0 0 0 0 0 0 0 0 0 0 0 0 0 0 0 0 0 0 0 0 0 0 0 0 0 0 0 0 0 0 0 0 0 0 0 0 0 0 0 0 0 0 0 0 0 0 0 0 0 0 0 0 0 0 
0 0 0 0 0 0 0 0 0 0 0 0 0 0 0 0 0 0 0 0 0 0 0 0 0 0 0 0 0 0 0 0 0 0 0 0 0 0 0 0 0 0 0 0 0 0 0 0 0 0 0 0 0 0 0 0 0 0 0 0 0 0 0 0 0 0 0 0 0 0 0 0 0 0 0 0 0 0 0 0 0 0 0 0 0 0 0 0 0 0 0 0 0 0 0 0 0 0 0 0 0 0 0 0 0 0 0 0 0 0 0 0 0 0 0 0 0 0 0 0 0 0 0 0 0 0 0 0 0 0 0 0 0 0 0 0 0 0 0 0 0 0 0 0 0 0 0 0 0 0 0 0 0 0 0 0 0 0 0 0 0 0 0 0 0 0 0 0 0 0 0 0 0 0 0 0 0 0 0 0 0 0 0 0 0 0 0 0 0 0 0 0 0 0 0 0 0 0 0 0 
0 0 -1.8383e-07 -1.85552e-06 -6.89314e-06 -2.06087e-05 -4.19565e-05 -5.12863e-05 -3.64457e-06 0.000144114 0.000367465 0.000534321 0.000487487 0.000227592 -1.14751e-05 3.4839e-05 0.000351461 0.000618521 0.000563556 0.000281403 0.000117152 0.000258949 0.000542126 0.000669322 0.000542295 0.000327406 0.000239196 0.000321923 0.000439854 0.000438204 0.000290796 0.000103947 2.52267e-06 2.06236e-05 8.85433e-05 0.000107568 3.48971e-05 -9.01346e-05 -0.000187184 -0.000199731 -0.000132202 -3.86581e-05 1.98502e-05 1.50906e-05 -3.62277e-05 -9.00327e-05 -0.000105704 -6.95457e-05 9.04134e-07 7.0283e-05 0.000106001 9.41541e-05 4.37992e-05 -2.0091e-05 -6.95452e-05 -8.56186e-05 -6.46285e-05 -1.73061e-05 3.72888e-05 7.97494e-05 9.68936e-05 8.50578e-05 4.97053e-05 2.3406e-06 -4.37032e-05 -7.70881e-05 -9.09967e-05 -8.3992e-05 -5.9394e-05 -2.36661e-05 1.55053e-05 5.09277e-05 7.71168e-05 9.09394e-05 9.16528e-05 8.0513e-05 6.01562e-05 3.39291e-05 5.27513e-06 -2.27454e-05 -4.772e-05 -6.80257e-05 -8.28045e-05 -9.18677e-05 -9.55403e-05 -9.44896e-05 -8.95868e-05 -8.1785e-05 -7.20236e-05 -6.11388e-05 -4.98515e-05 -3.8733e-05 -2.8222e-05 -1.86315e-05 -1.01663e-05 -2.93565e-06 3.00502e-06 7.63276e-06 1.09371e-05 1.29177e-05 1.35785e-05 1.2918e-05 1.09375e-05 7.63321e-06 3.00552e-06 -2.93513e-06 -1.01661e-05 -1.86315e-05 -2.82222e-05 -3.87331e-05 -4.9851e-05 -6.11379e-05 -7.20223e-05 -8.17834e-05 -8.95849e-05 -9.44874e-05 -9.55408e-05 -9.18725e-05 -8.28147e-05 -6.80402e-05 -4.77374e-05 -2.27633e-05 5.25871e-06 3.39126e-05 6.01385e-05 8.04954e-05 9.16416e-05 9.09403e-05 7.71286e-05 5.09452e-05 1.55252e-05 -2.36481e-05 -5.93809e-05 -8.39848e-05 -9.09953e-05 -7.70895e-05 -4.37048e-05 2.34399e-06 4.97285e-05 8.51228e-05 9.70129e-05 7.9863e-05 3.71071e-05 -1.85432e-05 -6.83625e-05 -9.38719e-05 -8.41657e-05 -4.12331e-05 1.94397e-05 7.40728e-05 0.000100149 8.65787e-05 3.98962e-05 -1.72251e-05 -5.62096e-05 -5.82764e-05 -2.78744e-05 5.87109e-06 5.1223e-06 -4.92001e-05 -0.000136476 -0.000201733 -0.000191308 -9.69844e-05 2.8e-05 0.000103044 8.60428e-05 1.77548e-05 -2.59584e-06 9.67794e-05 0.00028314 0.000431101 0.000432696 0.000312897 0.000231907 0.000320108 0.000533666 0.000660489 0.000535612 0.000255927 0.00011579 0.000278514 0.000558075 0.000612734 0.000348422 3.49121e-05 -1.09252e-05 0.000225921 0.000483382 0.00052972 0.000364306 0.000142904 -3.60255e-06 -5.09612e-05 -4.20012e-05 -2.1233e-05 -7.68433e-06 -1.90755e-06 0 0 
0 0 -1.85552e-06 -8.60217e-06 -2.49598e-05 -5.51023e-05 -7.80397e-05 -3.06163e-05 0.000166407 0.000510928 0.000827708 0.000852026 0.000518539 0.000147649 0.000177116 0.000632645 0.00102388 0.00091715 0.000491871 0.000322112 0.000655234 0.00113272 0.00126802 0.00101371 0.000739602 0.000753723 0.00098532 0.00112711 0.000987476 0.000662311 0.000397681 0.000336556 0.000407024 0.000424551 0.000275687 9.03692e-06 -0.000225207 -0.000308993 -0.000243269 -0.000129729 -8.0924e-05 -0.000137638 -0.000250737 -0.000327968 -0.0003024 -0.00017423 -4.69747e-06 0.000125501 0.000162797 0.000105434 -2.65848e-06 -9.97434e-05 -0.000137901 -0.000102681 -1.43017e-05 8.62072e-05 0.000157022 0.000172216 0.000129217 4.62689e-05 -4.69384e-05 -0.000120732 -0.000154726 -0.000142431 -9.08064e-05 -1.616e-05 6.15297e-05 0.000124142 0.000159329 0.000162167 0.000134818 8.47492e-05 2.22636e-05 -4.1838e-05 -9.8172e-05 -0.000140015 -0.000163766 -0.000168752 -0.000156644 -0.000130698 -9.5011e-05 -5.38536e-05 -1.11364e-05 2.991e-05 6.69025e-05 9.83307e-05 0.000123484 0.000142299 0.000155162 0.000162747 0.000165906 0.000165601 0.000162806 0.000158368 0.000153053 0.000147512 0.000142307 0.000137878 0.000134542 0.000132489 0.0001318 0.000132489 0.000134543 0.000137879 0.000142307 0.000147512 0.000153052 0.000158367 0.000162805 0.000165601 0.000165908 0.00016275 0.000155165 0.000142304 0.000123488 9.83316e-05 6.68955e-05 2.98907e-05 -1.11676e-05 -5.38921e-05 -9.50536e-05 -0.000130739 -0.000156684 -0.000168797 -0.000163812 -0.000140048 -9.81764e-05 -4.18144e-05 2.23036e-05 8.47927e-05 0.000134855 0.000162189 0.00015934 0.000124146 6.15296e-05 -1.61575e-05 -9.07935e-05 -0.000142381 -0.000154589 -0.000120472 -4.66338e-05 4.61147e-05 0.000127139 0.000165226 0.000140611 5.57135e-05 -6.04816e-05 -0.000158906 -0.000188802 -0.00012292 2.20118e-05 0.000183379 0.000277203 0.000242043 7.89064e-05 -0.000140709 -0.000310872 -0.000354556 -0.000273932 -0.000150517 -8.92414e-05 -0.000140933 -0.000258258 -0.000323156 -0.000234985 2.15886e-06 0.000267375 0.000412328 0.000392123 0.000321595 0.000383407 0.000646824 0.000968245 0.00110043 0.000963804 0.00073771 0.000725382 0.000998153 0.00125154 0.00111922 0.000647707 0.000318587 0.000487121 0.000908616 0.00101459 0.000627244 0.000176128 0.000147045 0.000514567 0.000844956 0.000820729 0.000506607 0.000164864 -3.09278e-05 -7.86571e-05 -5.62692e-05 -2.47845e-05 -8.01317e-06 0 0 
0 0 -6.89314e-06 -2.49598e-05 -6.19461e-05 -0.000103839 -7.67867e-05 0.0001477 0.000625906 0.00114719 0.00125029 0.000669909 -0.000155356 -0.000318444 0.000506753 0.00146119 0.00141398 0.000428304 -0.000228543 0.000321217 0.00147467 0.00197289 0.00145265 0.000740769 0.000733141 0.00139408 0.00195461 0.00183481 0.0011933 0.00064868 0.000609349 0.000924304 0.00111476 0.000862848 0.000275317 -0.000262096 -0.000440206 -0.000262376 4.01293e-06 7.01897e-05 -0.000154511 -0.000521765 -0.000778155 -0.000750902 -0.00045312 -5.59298e-05 0.000231161 0.000283641 0.000117866 -0.000138551 -0.00032915 -0.000351367 -0.000198059 5.32337e-05 0.000287457 0.000407329 0.000371251 0.000201989 -3.09757e-05 -0.000243352 -0.000366926 -0.000369566 -0.000259565 -7.67333e-05 0.000124124 0.00029028 0.000384118 0.000389772 0.000313109 0.000176325 1.03138e-05 -0.000153073 -0.000287106 -0.000373952 -0.00040584 -0.000384245 -0.000317679 -0.00021891 -0.000102272 1.86875e-05 0.000132486 0.000230672 0.000307937 0.000361946 0.000392824 0.000402499 0.00039415 0.000371577 0.000338682 0.000299011 0.00025577 0.000211648 0.000168853 0.000128957 9.31077e-05 6.20125e-05 3.61884e-05 1.59558e-05 1.5155e-06 -7.10884e-06 -9.98003e-06 -7.10847e-06 1.51652e-06 1.59566e-05 3.61884e-05 6.20112e-05 9.31061e-05 0.000128956 0.000168853 0.000211649 0.000255774 0.000299017 0.000338689 0.000371586 0.000394156 0.000402492 0.0003928 0.000361902 0.000307877 0.000230605 0.00013242 1.86241e-05 -0.000102341 -0.000218993 -0.000317751 -0.00038427 -0.000405803 -0.000373881 -0.000287028 -0.000153008 1.0346e-05 0.000176328 0.000313104 0.000389767 0.000384121 0.000290301 0.000124185 -7.65568e-05 -0.000259184 -0.000368989 -0.000366601 -0.000244992 -3.86422e-05 0.000181298 0.000328934 0.000337767 0.000195417 -3.97081e-05 -0.000254583 -0.000331866 -0.00021448 5.11368e-05 0.000324654 0.000439134 0.000294663 -7.57038e-05 -0.000510219 -0.000798469 -0.00079875 -0.00052843 -0.000167395 4.57206e-05 -2.16494e-05 -0.00027846 -0.000447777 -0.000271191 0.000257578 0.000838663 0.00109114 0.000904444 0.000589539 0.000622853 0.00115924 0.00179517 0.0019169 0.00136673 0.00071531 0.00072438 0.0014307 0.001948 0.00145712 0.000316708 -0.000226825 0.000424127 0.00140071 0.00144776 0.000502539 -0.000314721 -0.000152871 0.000664964 0.00123997 0.00113739 0.000619982 0.000144832 -7.87794e-05 -0.000104576 -5.63359e-05 -2.2006e-05 0 0 
0 0 -2.06087e-05 -5.51023e-05 -0.000103839 -8.0788e-05 0.000155692 0.00068396 0.0012751 0.00137546 0.000647328 -0.000353132 -0.000468469 0.00063092 0.00167579 0.00123723 -0.000220594 -0.000738282 0.000517945 0.0020853 0.00218733 0.00103978 0.000380292 0.00114835 0.00247141 0.00294089 0.0022591 0.00136001 0.00121853 0.00183923 0.00240095 0.00219133 0.00128226 0.000361799 3.35877e-05 0.000304176 0.000666282 0.000598215 -4.29622e-06 -0.000793025 -0.0012835 -0.00122424 -0.000743675 -0.000213831 2.48862e-05 -0.000127077 -0.00050361 -0.000812036 -0.000823842 -0.00049766 1.87721e-05 0.000486228 0.000702887 0.000595261 0.000235672 -0.000206483 -0.000546969 -0.000661126 -0.000521965 -0.000195557 0.00019566 0.000521713 0.000687264 0.000655151 0.000447576 0.00013016 -0.000212024 -0.000498711 -0.000672401 -0.00070715 -0.000608368 -0.00040574 -0.000142574 0.000134167 0.00038255 0.000571657 0.000683953 0.000714798 0.000670067 0.000563224 0.000411661 0.000233975 4.73445e-05 -0.000133826 -0.000298769 -0.000440477 -0.00055533 -0.000642582 -0.000703561 -0.000741178 -0.00075904 -0.000761257 -0.000752087 -0.000735161 -0.000713901 -0.000691335 -0.000669984 -0.000651709 -0.000637801 -0.000629184 -0.000626307 -0.000629183 -0.000637802 -0.000651711 -0.000669985 -0.000691335 -0.000713902 -0.000735158 -0.00075208 -0.000761251 -0.000759033 -0.00074117 -0.000703556 -0.000642582 -0.000555344 -0.000440514 -0.000298837 -0.000133917 4.7241e-05 0.000233867 0.000411558 0.000563097 0.000669918 0.000714669 0.000683911 0.000571722 0.000382674 0.000134286 -0.0001425 -0.00040573 -0.000608404 -0.000707161 -0.000672377 -0.000498665 -0.000211935 0.00013031 0.00044788 0.00065575 0.000688141 0.000522145 0.000192793 -0.000208588 -0.000557077 -0.000732991 -0.000665012 -0.00036194 8.08845e-05 0.000506239 0.000747338 0.000693885 0.000349244 -0.000149429 -0.000576098 -0.000728288 -0.000558471 -0.000234571 -5.62719e-05 -0.000246299 -0.000755467 -0.00124829 -0.00132343 -0.000829306 -2.3391e-05 0.000588501 0.000648917 0.0002731 -2.38342e-06 0.000331153 0.00125619 0.00216041 0.00235844 0.00178803 0.0011669 0.00131182 0.00220741 0.00288743 0.00242816 0.00112259 0.000364646 0.00101943 0.00215793 0.00205959 0.000509804 -0.000732627 -0.000218784 0.00122584 0.00166051 0.000625539 -0.000463331 -0.000348632 0.000642725 0.00136344 0.00126226 0.000674564 0.000151519 -7.51052e-05 -7.9574e-05 -4.43089e-05 0 0 
0 0 -4.19565e-05 -7.80397e-05 -7.67867e-05 0.000155692 0.000718015 0.00136224 0.00142749 0.000485764 -0.000737148 -0.000702888 0.000925713 0.00217531 0.00104097 -0.00135155 -0.00175119 0.000689747 0.00296653 0.00233498 5.83247e-05 -0.000523386 0.00149188 0.00372912 0.00387307 0.00235277 0.00135919 0.00210896 0.00369279 0.00436283 0.00345062 0.00187348 0.00101027 0.0013333 0.00211198 0.00225038 0.00131066 -0.000185811 -0.00129831 -0.00145798 -0.000850933 -0.000175801 -6.74335e-05 -0.000655241 -0.00153632 -0.00210676 -0.00197349 -0.00117614 -0.000120735 0.000684962 0.0009096 0.000541652 -0.000151449 -0.00078937 -0.00106671 -0.00087448 -0.000316091 0.000367186 0.00091009 0.00112654 0.000962423 0.000494764 -0.000113228 -0.000675437 -0.00104127 -0.00113035 -0.000941872 -0.000541269 -3.38784e-05 0.000466484 0.000863239 0.00109334 0.00113266 0.000992669 0.000711299 0.000341475 -6.05107e-05 -0.000443862 -0.000768972 -0.00101056 -0.00115683 -0.0012081 -0.00117359 -0.00106825 -0.000909801 -0.000716275 -0.000504465 -0.000288534 -7.95403e-05 0.000114976 0.000289871 0.000442582 0.000572184 0.000679795 0.000766853 0.000835592 0.000888045 0.000926297 0.000951827 0.000966345 0.000971097 0.000966348 0.000951827 0.000926295 0.000888044 0.000835592 0.000766858 0.000679804 0.000572197 0.000442597 0.00028988 0.000114975 -7.95558e-05 -0.000288569 -0.000504535 -0.000716383 -0.000909952 -0.00106842 -0.00117377 -0.00120829 -0.00115704 -0.0010108 -0.000769168 -0.000443905 -6.03732e-05 0.000341675 0.000711449 0.000992733 0.00113262 0.00109326 0.000863244 0.000466586 -3.37538e-05 -0.000541096 -0.000941624 -0.00112994 -0.00104043 -0.000674151 -0.000112582 0.000490189 0.000941173 0.0010684 0.000789783 0.000168088 -0.000579081 -0.00113502 -0.00121076 -0.00069885 0.000222524 0.00112129 0.00150289 0.00108241 -2.14536e-05 -0.00131298 -0.00218118 -0.0022465 -0.00158208 -0.000669752 -0.000110257 -0.000244838 -0.000906011 -0.00147941 -0.00130779 -0.000214562 0.00125859 0.00219613 0.00207112 0.00129795 0.000961958 0.00180605 0.00337553 0.00429458 0.00363307 0.00204769 0.00130825 0.00229391 0.00380288 0.00366628 0.00145688 -0.000534697 4.38094e-05 0.00230083 0.00292937 0.00067759 -0.00173734 -0.00133948 0.00103171 0.00215584 0.000917835 -0.000695814 -0.000730249 0.000479918 0.00141083 0.00134601 0.000715215 0.000178951 -2.34489e-05 -5.20238e-05 0 0 
0 0 -5.12863e-05 -3.06163e-05 0.0001477 0.00068396 0.00136224 0.00145547 0.000401263 -0.00102735 -0.000952095 0.00108945 0.00251616 0.000710131 -0.00252833 -0.00259766 0.0011195 0.00369471 0.00168508 -0.00173805 -0.0014618 0.00235184 0.00497153 0.00378905 0.00127479 0.00114431 0.00375027 0.00621989 0.0061261 0.00401665 0.00237488 0.00277486 0.00443161 0.00529876 0.00419061 0.00177881 -0.000225071 -0.000658888 0.000211071 0.00110639 0.000882715 -0.000603216 -0.00249932 -0.0036713 -0.00350143 -0.00222626 -0.00068424 0.000258731 0.00020844 -0.000612435 -0.00157819 -0.00205183 -0.00171681 -0.000693769 0.000572263 0.00155173 0.00187235 0.00145377 0.000500753 -0.000611357 -0.00149292 -0.00187309 -0.00166833 -0.000980423 -3.60529e-05 0.000897081 0.00158693 0.00188989 0.00176864 0.0012823 0.00055612 -0.00025631 -0.00100925 -0.00158841 -0.00192415 -0.00199528 -0.00182086 -0.00144884 -0.000942185 -0.000368655 0.000210485 0.000745003 0.00119935 0.00155253 0.00179696 0.00193596 0.00197996 0.00194411 0.00184571 0.00170272 0.00153109 0.00134486 0.00115671 0.000975174 0.00080771 0.000660136 0.000536668 0.000439046 0.000368222 0.000325473 0.000311404 0.00032547 0.000368224 0.000439046 0.000536666 0.000660132 0.00080771 0.000975194 0.00115672 0.00134489 0.00153111 0.0017027 0.00184567 0.00194404 0.00197981 0.00193574 0.00179668 0.00155223 0.00119904 0.000744654 0.000210113 -0.000368896 -0.00094215 -0.00144855 -0.00182051 -0.00199507 -0.00192414 -0.00158853 -0.00100935 -0.000256208 0.000556393 0.00128253 0.00176884 0.00189015 0.00158732 0.000898041 -3.4254e-05 -0.000979291 -0.00167475 -0.00190508 -0.00158311 -0.00080173 0.000180928 0.00102612 0.00144459 0.0013138 0.000724312 -6.70469e-05 -0.00074747 -0.0010691 -0.000940836 -0.000489857 -6.51594e-05 -0.000116898 -0.000924149 -0.00229696 -0.00352081 -0.00374092 -0.00260836 -0.000681844 0.000859311 0.00109444 0.000162652 -0.000739109 -0.000299022 0.00172741 0.00413899 0.00521984 0.00432832 0.0026725 0.00228986 0.0039394 0.00603605 0.00611128 0.00366451 0.00108884 0.00121946 0.00371081 0.00488682 0.00229977 -0.00147036 -0.00173955 0.00165408 0.00364776 0.00110059 -0.00257759 -0.0025055 0.000704735 0.00249407 0.00107884 -0.000946775 -0.00102418 0.000391274 0.00144393 0.00137343 0.000732191 0.000210056 1.12593e-05 0 0 
0 0 -3.64457e-06 0.000166407 0.000625906 0.0012751 0.00142749 0.000401263 -0.00112132 -0.00106196 0.00122721 0.0027118 0.000192843 -0.00382181 -0.00328031 0.0019489 0.00447474 0.000355862 -0.0042941 -0.00236359 0.00366973 0.00586249 0.00233351 -0.000964031 0.00091391 0.00585557 0.00838173 0.00655633 0.003555 0.00331634 0.00614231 0.00887995 0.00862246 0.00556782 0.00241864 0.0015409 0.00288144 0.00435088 0.0038997 0.00123986 -0.00210293 -0.00416213 -0.00403192 -0.0023742 -0.000749783 -0.000444311 -0.00166158 -0.00353366 -0.0047898 -0.00456382 -0.00284818 -0.000412853 0.00167389 0.00259195 0.00210918 0.000603451 -0.0011786 -0.00247732 -0.00281125 -0.00211589 -0.000697217 0.000928311 0.00223491 0.0028533 0.00265714 0.00175475 0.000423666 -0.000989545 -0.00216262 -0.0028688 -0.00300852 -0.00260543 -0.00177857 -0.000700291 0.000442709 0.00148356 0.00229867 0.00281439 0.00300746 0.00289683 0.0025304 0.00197274 0.00129435 0.00056118 -0.000169872 -0.000854761 -0.00146352 -0.00197911 -0.0023955 -0.00271564 -0.00294688 -0.0031015 -0.00319286 -0.00323729 -0.00324656 -0.00323328 -0.00320767 -0.00317932 -0.00315334 -0.00313564 -0.0031294 -0.00313565 -0.00315334 -0.00317932 -0.00320769 -0.0032333 -0.00324655 -0.00323724 -0.00319281 -0.00310146 -0.00294686 -0.00271567 -0.00239557 -0.00197926 -0.00146379 -0.000855145 -0.000170328 0.000560698 0.00129384 0.00197227 0.0025301 0.00289697 0.00300796 0.00281492 0.00229896 0.00148362 0.000442605 -0.000700368 -0.00177832 -0.00260494 -0.00300825 -0.0028687 -0.00216243 -0.000989205 0.000424744 0.0017574 0.00265944 0.00284546 0.00219031 0.00079704 -0.000981579 -0.00260357 -0.00347544 -0.00315479 -0.00156942 0.000825249 0.00309159 0.00413188 0.0032396 0.000590069 -0.0026877 -0.00504578 -0.00542273 -0.00392652 -0.00177033 -0.000472814 -0.000861865 -0.00254121 -0.00413856 -0.00418177 -0.00211725 0.00116136 0.00378081 0.00425486 0.00281894 0.00146501 0.00229547 0.00541876 0.00849005 0.00877402 0.00603531 0.00318235 0.00340148 0.00641139 0.00822572 0.00573427 0.000848513 -0.00100867 0.00225788 0.0057567 0.00359327 -0.00237275 -0.00427699 0.000334313 0.00441829 0.00192061 -0.00325462 -0.00378712 0.000190966 0.00268331 0.0012067 -0.00106398 -0.00111468 0.000418208 0.00146932 0.00133001 0.000623782 0.000201598 0 0 
0 0 0.000144114 0.000510928 0.00114719 0.00137546 0.000485764 -0.00102735 -0.00106196 0.00129376 0.00283812 -0.000200722 -0.00489509 -0.00380758 0.00281215 0.00501616 -0.00145807 -0.00695449 -0.00262862 0.0053763 0.00571401 -0.000916053 -0.00389967 0.00137046 0.00817625 0.00887017 0.00448773 0.00200856 0.00522054 0.0108333 0.0130879 0.0102581 0.00586877 0.00438628 0.00668383 0.00967893 0.0097157 0.00595763 0.000811037 -0.00243707 -0.00234163 -0.000168664 0.00142568 0.000531061 -0.00273508 -0.00652187 -0.00863556 -0.00794384 -0.00494327 -0.00129534 0.00120946 0.00159803 8.31666e-05 -0.00221876 -0.00396175 -0.00421676 -0.00283236 -0.000389051 0.00214327 0.0038421 0.0041663 0.00309313 0.0010485 -0.00128824 -0.00323394 -0.00429557 -0.0042669 -0.00323985 -0.00152401 0.000460394 0.00229605 0.00365193 0.00433411 0.00429299 0.00360255 0.00242731 0.000970742 -0.000560229 -0.00198851 -0.00317779 -0.00404701 -0.0045631 -0.00473379 -0.0045959 -0.00420468 -0.00362603 -0.00292417 -0.00215798 -0.00137713 -0.000621025 8.41055e-05 0.000721204 0.00127854 0.00175597 0.00215375 0.00247541 0.00272499 0.00291149 0.00304207 0.0031193 0.00314397 0.0031193 0.00304208 0.00291148 0.00272494 0.00247541 0.00215378 0.00175604 0.00127864 0.000721248 8.40904e-05 -0.000621123 -0.00137734 -0.00215833 -0.0029247 -0.00362673 -0.00420543 -0.0045967 -0.00473446 -0.00456342 -0.00404674 -0.00317709 -0.00198784 -0.000559847 0.000970974 0.0024275 0.00360274 0.00429349 0.00433483 0.00365215 0.00229577 0.000460346 -0.0015237 -0.00323855 -0.004263 -0.00429107 -0.00324211 -0.00134588 0.000869321 0.00269223 0.00346069 0.00285742 0.00111014 -0.00102167 -0.00255446 -0.00277159 -0.00163171 0.000184462 0.00163136 0.00183085 0.00042895 -0.00230964 -0.00556592 -0.00810773 -0.00867286 -0.00669204 -0.0029841 0.000386356 0.00141407 -0.000185381 -0.00246023 -0.002604 0.000691297 0.00587996 0.00960153 0.00949536 0.00648248 0.00422287 0.00573273 0.0101001 0.0128899 0.0106317 0.00505898 0.00188781 0.00435564 0.008694 0.00801191 0.0012816 -0.00393125 -0.000974109 0.00559551 0.00526945 -0.00264672 -0.00691868 -0.00146443 0.00495489 0.00277565 -0.00377966 -0.00485764 -0.000210851 0.00279607 0.00127152 -0.0010382 -0.000965108 0.000554718 0.00137862 0.000993199 0.000483222 0 0 
0 0 0.000367465 0.000827708 0.00125029 0.000647328 -0.000737148 -0.000952095 0.00122721 0.00283812 -0.000336073 -0.00546087 -0.00405977 0.00357293 0.00524895 -0.00354333 -0.00939524 -0.00211496 0.00733365 0.00441271 -0.00553319 -0.00667617 0.00280598 0.0098497 0.00660459 -1.48712e-05 0.000376341 0.00822057 0.0149723 0.0143033 0.00885992 0.0060121 0.00925279 0.0150201 0.0171726 0.013294 0.00653936 0.00211136 0.00246054 0.00558587 0.00726638 0.00476079 -0.00118133 -0.00723632 -0.0101502 -0.00894321 -0.00524875 -0.00191211 -0.00107268 -0.00300696 -0.00623039 -0.00857768 -0.00848094 -0.00570969 -0.0013344 0.00290984 0.00544633 0.00549883 0.00329117 -0.000165483 -0.00354786 -0.00571491 -0.0060482 -0.00456854 -0.00183133 0.00133417 0.00408205 0.00577768 0.00610999 0.00511466 0.0031028 0.000538653 -0.00207677 -0.0043123 -0.00586056 -0.00656858 -0.00643349 -0.00556053 -0.00413328 -0.00236521 -0.000469025 0.001376 0.00302626 0.00439329 0.00542582 0.00611314 0.00647758 0.00655839 0.00640822 0.00608406 0.0056371 0.00511753 0.00456575 0.00402294 0.00350834 0.00304622 0.00265199 0.00233923 0.00211057 0.00197332 0.00192594 0.00197332 0.00211058 0.0023392 0.00265197 0.00304628 0.00350846 0.00402308 0.00456586 0.00511757 0.00563697 0.00608378 0.00640779 0.00655775 0.00647666 0.00611192 0.0054246 0.00439232 0.00302588 0.0013764 -0.000468152 -0.00236446 -0.00413281 -0.00556 -0.00643276 -0.00656804 -0.00585999 -0.00431148 -0.0020767 0.000537948 0.00310271 0.00511528 0.00611165 0.00578281 0.0040895 0.00132732 -0.00190038 -0.00479749 -0.0065812 -0.00668335 -0.00494116 -0.00168112 0.00228895 0.00577521 0.00743738 0.00626827 0.00222318 -0.00336005 -0.00809144 -0.00974659 -0.00778509 -0.00397211 -0.00132371 -0.00195497 -0.00548866 -0.0092994 -0.0103453 -0.00723674 -0.00120192 0.00458936 0.00704229 0.00544252 0.00236471 0.0019425 0.00627832 0.0130334 0.0169729 0.0148371 0.00901845 0.00573581 0.00861171 0.0141238 0.0148312 0.00806378 0.000287159 -0.00010973 0.00643532 0.00964761 0.00268034 -0.00669947 -0.0055609 0.00429491 0.00719665 -0.00214692 -0.0093404 -0.0035305 0.0051838 0.00352095 -0.00404616 -0.00543738 -0.00035209 0.0028194 0.00126562 -0.000864361 -0.0006909 0.000534631 0.000964128 0.000667664 0 0 
0 0 0.000534321 0.000852026 0.000669909 -0.000353132 -0.000702888 0.00108945 0.0027118 -0.000200722 -0.00546087 -0.00411796 0.00405642 0.00535464 -0.0053065 -0.0112664 -0.00113422 0.009024 0.00204211 -0.0105485 -0.00819262 0.00526424 0.0099038 0.00118042 -0.00582965 -6.56753e-05 0.011645 0.016056 0.0106343 0.004911 0.0075875 0.0167202 0.0231375 0.0210079 0.0133449 0.0078781 0.00903176 0.0142259 0.0170806 0.0134658 0.00479257 -0.00367913 -0.00730239 -0.00538984 -0.00119177 0.000885115 -0.00157671 -0.00761091 -0.0138215 -0.0166668 -0.014531 -0.00845523 -0.00131872 0.00379243 0.00508254 0.00265212 -0.00182291 -0.00604366 -0.00812517 -0.00727473 -0.00390568 0.000707408 0.00500511 0.00767657 0.00805187 0.00618932 0.00272158 -0.00138264 -0.00513239 -0.00774384 -0.00878352 -0.00818287 -0.00619259 -0.00327019 4.29339e-05 0.00322722 0.00587421 0.00771427 0.00863262 0.00863844 0.00784603 0.00642899 0.00458825 0.00251901 0.000390111 -0.00165481 -0.00351545 -0.00512453 -0.00645378 -0.00750033 -0.00828683 -0.0088416 -0.00920099 -0.00940931 -0.00950363 -0.00951937 -0.00948533 -0.00943184 -0.00938168 -0.00934786 -0.00933352 -0.00934787 -0.00938172 -0.00943193 -0.00948531 -0.00951929 -0.00950351 -0.00940917 -0.00920094 -0.00884173 -0.00828716 -0.00750084 -0.00645452 -0.00512565 -0.00351711 -0.00165667 0.000388693 0.00251857 0.00458866 0.00642997 0.00784697 0.00863907 0.00863343 0.00771554 0.00587532 0.00322772 4.35345e-05 -0.00327022 -0.00619361 -0.00818292 -0.00878223 -0.00774159 -0.00512621 -0.00137186 0.00271848 0.00611384 0.00777849 0.00700856 0.00374374 -0.00117433 -0.00604275 -0.0088162 -0.00797455 -0.00348569 0.00278401 0.00772812 0.00858406 0.00451104 -0.00293027 -0.010733 -0.0159954 -0.0170643 -0.0138708 -0.00793123 -0.00207118 0.000619424 -0.00117861 -0.0054124 -0.00753886 -0.00397167 0.00462359 0.0133474 0.016841 0.0138729 0.00870656 0.00763259 0.0130891 0.0206719 0.0227756 0.0164302 0.00738355 0.00471801 0.0103997 0.0158074 0.0114242 -0.000169789 -0.00588181 0.00104702 0.00967647 0.00508871 -0.00822416 -0.0105421 0.00193886 0.00886618 -0.00117963 -0.0111999 -0.00528833 0.0052679 0.00397374 -0.00411941 -0.0054194 -0.000155786 0.00277197 0.00114245 -0.000754931 -0.000563378 0.000458526 0.000534727 0 0 
0 0 0.000487487 0.000518539 -0.000155356 -0.000468469 0.000925713 0.00251616 0.000192843 -0.00489509 -0.00405977 0.00405642 0.00539202 -0.00627637 -0.0123339 -3.46097e-05 0.010212 -0.000892646 -0.0150949 -0.00812295 0.00818934 0.00787413 -0.00638706 -0.0109164 0.00138206 0.0137727 0.0120954 0.00260726 0.000936307 0.0114761 0.0235812 0.025722 0.0183095 0.0116123 0.0136474 0.0222318 0.0282789 0.0252261 0.0147775 0.00451928 0.000882698 0.00409137 0.00876854 0.00882324 0.00212051 -0.00836608 -0.0171097 -0.019914 -0.0163223 -0.0093416 -0.0032794 -0.00120487 -0.00352966 -0.00823343 -0.0122446 -0.0130734 -0.00988947 -0.00370976 0.00322375 0.00850129 0.0104612 0.00870734 0.00406934 -0.00182978 -0.00715951 -0.0104948 -0.0111019 -0.00903368 -0.00496287 5.90406e-05 0.00491894 0.00870027 0.0108139 0.01106 0.00957435 0.00673801 0.00307245 -0.000880422 -0.00462857 -0.0078045 -0.0101647 -0.0116143 -0.0121496 -0.0118796 -0.0109324 -0.00947823 -0.00768713 -0.00571075 -0.00368357 -0.00171459 0.000126653 0.00178931 0.00325117 0.0044953 0.005544 0.00639076 0.00705098 0.00754275 0.00788371 0.00807993 0.00815188 0.00807988 0.0078836 0.00754272 0.00705106 0.00639084 0.00554416 0.00449534 0.003251 0.0017888 0.000126047 -0.00171542 -0.00368485 -0.00571288 -0.00768979 -0.00948038 -0.0109332 -0.0118792 -0.0121486 -0.0116133 -0.0101638 -0.0078033 -0.00462667 -0.000878679 0.00307298 0.00673812 0.0095745 0.0110592 0.0108138 0.00870202 0.00492148 6.57977e-05 -0.00494886 -0.00903019 -0.0111759 -0.0107989 -0.00794858 -0.00338845 0.00164456 0.00581626 0.00817666 0.00831947 0.00626353 0.00229207 -0.00292121 -0.00797207 -0.0108963 -0.0102607 -0.00671263 -0.00337556 -0.00392433 -0.00940931 -0.0167311 -0.0205865 -0.0174792 -0.00834215 0.00210533 0.00851636 0.0083958 0.00389192 0.000734849 0.00419343 0.0143189 0.0248333 0.0279783 0.021882 0.0131931 0.0111665 0.0179799 0.0254728 0.0233047 0.011157 0.000660681 0.00244177 0.0118546 0.0135074 0.00123636 -0.0109398 -0.00646519 0.00764789 0.00796178 -0.00817464 -0.0150543 -0.000970223 0.0100391 -0.000105174 -0.0122858 -0.00628496 0.00527909 0.00398438 -0.00399934 -0.00476898 0.000274039 0.00247973 0.000760667 -0.000625409 -4.34412e-05 0.00011471 0 0 
0 0 0.000227592 0.000147649 -0.000318444 0.00063092 0.00217531 0.000710131 -0.00382181 -0.00380758 0.00357293 0.00535464 -0.00627637 -0.012663 0.000709463 0.0109223 -0.00346562 -0.0184493 -0.00687052 0.0106982 0.0039109 -0.0143328 -0.0134655 0.00447889 0.0129759 0.00317911 -0.00687406 -0.000527552 0.0161909 0.0251534 0.0197277 0.0108605 0.0121423 0.0242789 0.0357074 0.0358285 0.0254211 0.0145022 0.0119522 0.0177336 0.0239893 0.0226002 0.011892 -0.00264942 -0.0131128 -0.0150056 -0.00987909 -0.00354706 -0.00176439 -0.00662016 -0.0156524 -0.0237182 -0.0261835 -0.021403 -0.0112764 4.49368e-05 0.00828833 0.0108634 0.00766972 0.00074281 -0.00683271 -0.0121946 -0.0136194 -0.0108594 -0.00499791 0.00209496 0.00846043 0.0125571 0.0135939 0.0115707 0.00716281 0.00140241 -0.00454542 -0.00965523 -0.0131921 -0.0147966 -0.0144522 -0.0124057 -0.00908708 -0.00499804 -0.000638669 0.00357257 0.00730169 0.0103431 0.0126012 0.0140516 0.0147571 0.0147992 0.0143152 0.0134321 0.0122902 0.0109944 0.00964591 0.00832665 0.00709973 0.00600325 0.00507242 0.00432945 0.00378801 0.00346501 0.00335498 0.00346498 0.00378791 0.00432947 0.00507259 0.00600357 0.00710005 0.0083267 0.00964552 0.0109935 0.0122892 0.0134307 0.0143127 0.0147956 0.0147539 0.0140501 0.0126016 0.0103442 0.00730286 0.00357385 -0.000637166 -0.00499571 -0.00908466 -0.0124048 -0.0144528 -0.0147967 -0.0131924 -0.00965553 -0.00454413 0.00140489 0.00716984 0.0115877 0.0136063 0.0124947 0.00814688 0.00121643 -0.00682414 -0.0138355 -0.017362 -0.0154375 -0.00763735 0.00403182 0.0150672 0.0200399 0.0155092 0.00248323 -0.0135512 -0.0256268 -0.0293076 -0.0247649 -0.0157662 -0.00711517 -0.00265288 -0.0040669 -0.00985098 -0.0149948 -0.0134841 -0.00311304 0.0116575 0.0224245 0.0235722 0.0171638 0.0114889 0.0141388 0.024961 0.0352497 0.0351833 0.0239045 0.0118157 0.0104748 0.0193259 0.0248699 0.0160513 -0.000610161 -0.00689569 0.00302775 0.0127017 0.00427732 -0.0134854 -0.0143475 0.00371611 0.0104382 -0.00694043 -0.0183842 -0.00353304 0.0107118 0.000585101 -0.0126522 -0.00628644 0.00530185 0.00360666 -0.00368277 -0.00376553 0.000596773 0.00201284 0.000705367 8.96722e-05 -0.00020187 0 0 