<?xml version="1.0"?>
<VTKFile type="ImageData" version="0.1" byte_order="LittleEndian">
<ImageData WholeExtent="0 199 0 199 0 0" Origin="0 0 0" Spacing="15 15 0">
<Piece Extent="0 199 0 199 0 0">
<PointData Scalars="Amplitude">
<DataArray type="Float32" Name="Amplitude" format="ascii">
0 0 0 0 0 0 0 0 0 0 0 0 0 0 0 0 0 0 0 0 0 0 0 0 0 0 0 0 0 0 0 0 0 0 0 0 0 0 0 0 0 0 0 0 0 0 0 0 0 0 0 0 0 0 0 0 0 0 0 0 0 0 0 0 0 0 0 0 0 0 0 0 0 0 0 0 0 0 0 0 0 0 0 0 0 0 0 0 0 0 0 0 0 0 0 0 0 0 0 0 0 0 0 0 0 0 0 0 0 0 0 0 0 0 0 0 0 0 0 0 0 0 0 0 0 0 0 0 0 0 0 0 0 0 0 0 0 0 0 0 0 0 0 0 0 0 0 0 0 0 0 0 0 0 0 0 0 0 0 0 0 0 0 0 0 0 0 0 0 0 0 0 0 0 0 0 0 0 0 0 0 0 0 0 0 0 0 0 0 0 0 0 0 0 0 0 0 0 0 0 
0 0 0 0 0 0 0 0 0 0 0 0 0 0 0 0 0 0 0 0 0 0 0 0 0 0 0 0 0 0 0 0 0 0 0 0 0 0 0 0 0 0 0 0 0 0 0 0 0 0 0 0 0 0 0 0 0 0 0 0 0 0 0 0 0 0 0 0 0 0 0 0 0 0 0 0 0 0 0 0 0 0 0 0 0 0 0 0 0 0 0 0 0 0 0 0 0 0 0 0 0 0 0 0 0 0 0 0 0 0 0 0 0 0 0 0 0 0 0 0 0 0 0 0 0 0 0 0 0 0 0 0 0 0 0 0 0 0 0 0 0 0 0 0 0 0 0 0 0 0 0 0 0 0 0 0 0 0 0 0 0 0 0 0 0 0 0 0 0 0 0 0 0 0 0 0 0 0 0 0 0 0 0 0 0 0 0 0 0 0 0 0 0 0 0 0 0 0 0 0 
0 0 -6.0105e-10 -6.44845e-10 -3.18734e-10 -6.31773e-09 -1.69153e-08 -1.76701e-08 -2.54611e-08 -3.51883e-08 -6.71478e-08 -2.92501e-07 -4.25398e-07 -1.44714e-07 -1.56821e-07 -5.7284e-07 -1.32943e-06 -2.35083e-06 -1.96892e-06 -1.0249e-06 -1.21359e-06 -2.27852e-06 -4.42034e-06 -5.71234e-06 -5.08105e-06 -4.06669e-06 -3.40428e-06 -4.32816e-06 -6.56586e-06 -8.36635e-06 -9.16548e-06 -8.45402e-06 -7.17283e-06 -6.75809e-06 -7.57755e-06 -9.76483e-06 -1.21696e-05 -1.37631e-05 -1.41658e-05 -1.33768e-05 -1.24602e-05 -1.21808e-05 -1.31301e-05 -1.53054e-05 -1.79617e-05 -2.04619e-05 -2.20117e-05 -2.24687e-05 -2.2041e-05 -2.12401e-05 -2.08027e-05 -2.10728e-05 -2.22935e-05 -2.41895e-05 -2.63611e-05 -2.82776e-05 -2.9413e-05 -2.95221e-05 -2.84314e-05 -2.63331e-05 -2.34207e-05 -2.00275e-05 -1.63712e-05 -1.25862e-05 -8.69985e-06 -4.57124e-06 -6.88122e-08 5.06616e-06 1.09676e-05 1.77686e-05 2.54164e-05 3.38079e-05 4.26729e-05 5.16381e-05 6.02685e-05 6.80549e-05 7.45341e-05 7.92088e-05 8.17301e-05 8.17826e-05 7.92684e-05 7.41662e-05 6.66769e-05 5.70773e-05 4.58099e-05 3.33309e-05 2.01114e-05 6.51957e-06 -7.14132e-06 -2.05633e-05 -3.31855e-05 -4.39233e-05 -5.11918e-05 -5.34892e-05 -5.05303e-05 -4.40607e-05 -3.75595e-05 -3.44017e-05 -3.57512e-05 -3.98459e-05 -4.37314e-05 -4.58259e-05 -4.69533e-05 -4.86352e-05 -5.09385e-05 -5.23105e-05 -5.14692e-05 -4.85086e-05 -4.40131e-05 -3.77607e-05 -2.91871e-05 -1.85339e-05 -6.72022e-06 5.75785e-06 1.88615e-05 3.21009e-05 4.45437e-05 5.56116e-05 6.5164e-05 7.27421e-05 7.78046e-05 8.02373e-05 8.02818e-05 7.79061e-05 7.3264e-05 6.68563e-05 5.92487e-05 5.07366e-05 4.18413e-05 3.31407e-05 2.49304e-05 1.7394e-05 1.07424e-05 5.03154e-06 1.5472e-08 -4.382e-06 -8.37669e-06 -1.22077e-05 -1.60078e-05 -1.96671e-05 -2.30807e-05 -2.60129e-05 -2.80528e-05 -2.90684e-05 -2.89276e-05 -2.77647e-05 -2.58492e-05 -2.37028e-05 -2.17859e-05 -2.05508e-05 -2.03185e-05 -2.077e-05 -2.15731e-05 -2.2028e-05 -2.15941e-05 -2.00724e-05 -1.7606e-05 -1.49587e-05 -1.28045e-05 -1.18992e-05 -1.22084e-05 -1.31473e-05 -1.39488e-05 -1.3554e-05 -1.19901e-05 -9.61914e-06 -7.45441e-06 -6.64887e-06 -7.05893e-06 -8.33957e-06 -9.06507e-06 -8.28391e-06 -6.49866e-06 -4.2531e-06 -3.35532e-06 -4.02106e-06 -5.0308e-06 -5.6607e-06 -4.38995e-06 -2.27657e-06 -1.22288e-06 -1.03305e-06 -1.96066e-06 -2.3335e-06 -1.32148e-06 -5.71539e-07 -1.58747e-07 -1.45607e-07 -4.21785e-07 -2.89724e-07 -6.67556e-08 -3.49257e-08 -2.52673e-08 -1.77032e-08 -1.65468e-08 -5.88267e-09 -1.50794e-09 -4.47937e-10 0 0 
0 0 -6.44845e-10 -2.20504e-09 -8.49758e-09 -2.3822e-08 -1.37733e-08 -1.86634e-08 -1.0556e-07 -1.82828e-07 -3.73436e-07 -4.78441e-07 2.75593e-08 -4.85601e-07 -2.22891e-06 -2.79408e-06 -2.95605e-06 -1.72202e-06 -6.95673e-07 -4.52569e-06 -8.37883e-06 -1.00743e-05 -9.47671e-06 -5.83978e-06 -5.72816e-06 -9.39701e-06 -1.40376e-05 -1.82052e-05 -1.77293e-05 -1.48163e-05 -1.26433e-05 -1.27695e-05 -1.72117e-05 -2.27443e-05 -2.69619e-05 -2.8306e-05 -2.61552e-05 -2.3681e-05 -2.25749e-05 -2.47151e-05 -3.00235e-05 -3.61754e-05 -4.16954e-05 -4.43382e-05 -4.42738e-05 -4.25449e-05 -4.07142e-05 -4.08854e-05 -4.34173e-05 -4.85779e-05 -5.49502e-05 -6.10941e-05 -6.56919e-05 -6.76557e-05 -6.72935e-05 -6.48311e-05 -6.15061e-05 -5.80986e-05 -5.53749e-05 -5.36648e-05 -5.26481e-05 -5.19042e-05 -5.03194e-05 -4.71765e-05 -4.14241e-05 -3.26133e-05 -2.03487e-05 -4.7011e-06 1.39746e-05 3.52043e-05 5.81441e-05 8.21212e-05 0.000106039 0.000129102 0.000150166 0.000168442 0.000182934 0.000192928 0.000197728 0.000196914 0.000190243 0.000177726 0.000159777 0.000136972 0.000110253 8.04389e-05 4.84742e-05 1.49488e-05 -1.93488e-05 -5.34479e-05 -8.50923e-05 -0.000110832 -0.000126395 -0.000129397 -0.000121559 -0.000109867 -0.000103106 -0.000106618 -0.000118202 -0.000130465 -0.000137044 -0.000137911 -0.000137485 -0.000138903 -0.00014047 -0.000138853 -0.000132942 -0.000123941 -0.000111693 -9.45387e-05 -7.17816e-05 -4.52935e-05 -1.66509e-05 1.3898e-05 4.60109e-05 7.75672e-05 0.000106848 0.000133265 0.000156276 0.000174289 0.000186561 0.000193293 0.000194484 0.000189831 0.000179887 0.000165755 0.000147862 0.000126979 0.00010425 8.08302e-05 5.7175e-05 3.45183e-05 1.3733e-05 -4.60228e-06 -2.00321e-05 -3.19764e-05 -4.05621e-05 -4.6319e-05 -4.94716e-05 -5.10635e-05 -5.18767e-05 -5.28149e-05 -5.43175e-05 -5.69385e-05 -6.02924e-05 -6.35896e-05 -6.61153e-05 -6.64764e-05 -6.44621e-05 -5.99273e-05 -5.38177e-05 -4.74318e-05 -4.23506e-05 -3.98801e-05 -3.97275e-05 -4.16222e-05 -4.33955e-05 -4.35115e-05 -4.09797e-05 -3.55097e-05 -2.93771e-05 -2.41166e-05 -2.20252e-05 -2.32159e-05 -2.57671e-05 -2.79277e-05 -2.6595e-05 -2.23947e-05 -1.69006e-05 -1.25341e-05 -1.24495e-05 -1.46221e-05 -1.75006e-05 -1.78722e-05 -1.38159e-05 -9.27787e-06 -5.67557e-06 -5.7939e-06 -9.38856e-06 -9.98449e-06 -8.31282e-06 -4.50753e-06 -7.22085e-07 -1.7288e-06 -2.94045e-06 -2.7747e-06 -2.21141e-06 -4.8625e-07 2.254e-08 -4.75582e-07 -3.70414e-07 -1.81351e-07 -1.04905e-07 -1.85029e-08 -1.31237e-08 -2.52038e-08 -1.01255e-08 -1.43299e-09 0 0 
0 0 -3.18734e-10 -8.49758e-09 -3.10574e-08 -3.10392e-08 2.1393e-08 -8.80616e-08 -2.8708e-07 -3.63197e-07 -6.76684e-07 -1.9511e-08 5.76276e-07 -3.06925e-06 -5.27816e-06 -3.30915e-06 -1.70784e-06 2.06826e-06 -3.10896e-06 -1.52435e-05 -1.67269e-05 -1.34935e-05 -5.15152e-06 -4.50822e-07 -1.10957e-05 -2.25866e-05 -3.02992e-05 -2.91536e-05 -1.79176e-05 -1.1613e-05 -1.25683e-05 -2.25218e-05 -3.71319e-05 -4.43941e-05 -4.42255e-05 -3.59607e-05 -2.66399e-05 -2.46347e-05 -3.00834e-05 -4.37189e-05 -5.78309e-05 -6.70659e-05 -6.90854e-05 -6.30946e-05 -5.54048e-05 -4.95394e-05 -5.04359e-05 -5.88746e-05 -7.21875e-05 -8.76516e-05 -9.95333e-05 -0.00010619 -0.000105854 -0.00010023 -9.23272e-05 -8.46766e-05 -8.07136e-05 -8.06484e-05 -8.51101e-05 -9.18283e-05 -9.89067e-05 -0.000103708 -0.000103876 -9.83222e-05 -8.58345e-05 -6.72092e-05 -4.25439e-05 -1.36467e-05 1.85537e-05 5.24865e-05 8.72075e-05 0.000121743 0.000155132 0.00018692 0.000215929 0.000241821 0.000263214 0.000279644 0.000289679 0.000292926 0.000288265 0.000275624 0.000254764 0.000226364 0.00019107 0.00014974 0.000103122 5.18619e-05 -2.7317e-06 -5.80512e-05 -0.0001086 -0.000147149 -0.000166906 -0.000167394 -0.00015671 -0.000150273 -0.000160608 -0.000188654 -0.000221379 -0.000243179 -0.00024782 -0.00024247 -0.000236573 -0.00023239 -0.000224709 -0.000211019 -0.000193772 -0.000175278 -0.00015188 -0.000119938 -8.07198e-05 -3.86734e-05 5.54857e-06 5.27376e-05 0.000100741 0.000145248 0.00018502 0.000220412 0.000249483 0.000269996 0.000282246 0.000287575 0.000284925 0.000274747 0.000258604 0.000238073 0.000212541 0.00018377 0.000152859 0.000120234 8.59844e-05 5.18687e-05 1.86988e-05 -1.3218e-05 -4.17433e-05 -6.58334e-05 -8.43968e-05 -9.70451e-05 -0.000102542 -0.000102466 -9.7734e-05 -9.02708e-05 -8.32392e-05 -7.87606e-05 -7.87422e-05 -8.27638e-05 -9.05493e-05 -9.83148e-05 -0.000103943 -0.000104452 -9.77079e-05 -8.58724e-05 -7.06243e-05 -5.7301e-05 -4.88854e-05 -4.81205e-05 -5.4025e-05 -6.18871e-05 -6.80426e-05 -6.59759e-05 -5.67941e-05 -4.28011e-05 -2.92874e-05 -2.40149e-05 -2.60365e-05 -3.52947e-05 -4.36077e-05 -4.38438e-05 -3.67375e-05 -2.22526e-05 -1.22653e-05 -1.1232e-05 -1.74369e-05 -2.86265e-05 -2.98162e-05 -2.22714e-05 -1.09746e-05 -4.8594e-07 -5.1251e-06 -1.33644e-05 -1.65627e-05 -1.50999e-05 -3.12006e-06 1.99693e-06 -1.72215e-06 -3.29555e-06 -5.23187e-06 -3.04286e-06 5.60898e-07 -2.55072e-08 -6.71762e-07 -3.60835e-07 -2.85099e-07 -8.6194e-08 2.0654e-08 -3.63064e-08 -2.52312e-08 -6.53038e-09 0 0 
0 0 -6.31773e-09 -2.3822e-08 -3.10392e-08 3.53448e-08 -1.38224e-07 -4.6997e-07 -1.4229e-07 -8.62296e-08 -4.10224e-07 -5.3855e-07 -5.31801e-06 -6.16195e-06 3.53788e-06 2.20015e-06 -4.80679e-06 -1.45859e-05 -2.87433e-05 -1.15528e-05 6.68843e-06 1.86792e-06 -1.0316e-05 -4.0748e-05 -5.00103e-05 -3.09238e-05 -1.39389e-05 9.49904e-08 -1.36467e-05 -4.38109e-05 -6.26792e-05 -6.94512e-05 -5.07654e-05 -2.74023e-05 -1.7996e-05 -2.44495e-05 -5.31155e-05 -8.11601e-05 -9.82988e-05 -9.79002e-05 -7.85341e-05 -5.91556e-05 -4.60646e-05 -5.18185e-05 -7.4801e-05 -0.000104838 -0.000134939 -0.000150452 -0.000152068 -0.000139094 -0.000119911 -0.000104511 -9.76569e-05 -0.000106292 -0.000125333 -0.000152805 -0.000179927 -0.000200675 -0.000211068 -0.000207441 -0.000192888 -0.000168039 -0.0001395 -0.000109337 -8.21263e-05 -5.86366e-05 -3.87591e-05 -2.16812e-05 -3.94323e-06 1.57524e-05 4.16516e-05 7.36795e-05 0.000114575 0.000162579 0.000217633 0.000276401 0.000336298 0.000393509 0.000444115 0.000484964 0.000512414 0.000525086 0.000520381 0.000498992 0.000459756 0.000404318 0.000332093 0.000245806 0.000148462 5.01692e-05 -3.63551e-05 -9.62908e-05 -0.000125258 -0.000133257 -0.000146317 -0.000188533 -0.000265887 -0.000356329 -0.000427259 -0.000458985 -0.00045901 -0.000445738 -0.000427456 -0.000397133 -0.000351274 -0.000297858 -0.000247431 -0.000196195 -0.000134701 -6.09371e-05 1.62674e-05 9.43723e-05 0.000175426 0.000258412 0.0003335 0.00039725 0.000449742 0.000490074 0.000511484 0.000515042 0.000503185 0.000477289 0.000436244 0.00038558 0.000330044 0.000271255 0.000212573 0.000158751 0.000112386 7.18731e-05 4.04279e-05 1.59902e-05 -3.06756e-06 -2.05066e-05 -3.65211e-05 -5.60432e-05 -8.00421e-05 -0.00010724 -0.000137406 -0.000166267 -0.000190583 -0.000204333 -0.000207975 -0.000197548 -0.000176721 -0.000149942 -0.000122342 -0.000103044 -9.46666e-05 -0.000101463 -0.000116901 -0.00013656 -0.000149438 -0.000147718 -0.000132666 -0.000102762 -7.28335e-05 -5.00928e-05 -4.42048e-05 -5.74656e-05 -7.72974e-05 -9.67835e-05 -9.72901e-05 -8.01152e-05 -5.19586e-05 -2.36271e-05 -1.74697e-05 -2.69867e-05 -5.0377e-05 -6.88001e-05 -6.19446e-05 -4.32491e-05 -1.33011e-05 1.69494e-07 -1.37671e-05 -3.0553e-05 -4.94185e-05 -4.03252e-05 -1.03155e-05 1.71831e-06 6.48543e-06 -1.15039e-05 -2.84593e-05 -1.44715e-05 -4.8027e-06 2.12976e-06 3.45835e-06 -6.11011e-06 -5.26667e-06 -5.41437e-07 -4.11654e-07 -8.98494e-08 -1.42516e-07 -4.65151e-07 -1.42367e-07 3.92793e-08 -8.89416e-09 -2.05269e-08 0 0 
0 0 -1.69153e-08 -1.37733e-08 2.1393e-08 -1.38224e-07 -5.3613e-07 6.42892e-08 4.14475e-07 -1.75614e-06 -2.11812e-06 -3.9497e-06 -4.80716e-06 8.98292e-06 2.75155e-07 -2.59152e-05 -2.06865e-05 -1.94023e-05 7.15942e-06 2.86612e-05 -2.63702e-05 -5.66189e-05 -6.54158e-05 -4.90687e-05 1.17253e-05 1.1047e-05 -2.24947e-05 -6.50791e-05 -0.000109209 -8.64069e-05 -4.68893e-05 -1.22135e-05 -1.7591e-07 -4.61881e-05 -9.48531e-05 -0.000136284 -0.000143242 -0.000105615 -6.80986e-05 -3.53262e-05 -4.32616e-05 -8.53366e-05 -0.000138566 -0.000192406 -0.000210372 -0.00020233 -0.000167658 -0.000127712 -0.000106591 -0.000106617 -0.000141755 -0.000191339 -0.00024928 -0.00029572 -0.000318523 -0.000318842 -0.000292986 -0.000259069 -0.000219823 -0.000192136 -0.000177768 -0.000180141 -0.000197691 -0.000220792 -0.000246401 -0.000260225 -0.000261636 -0.00024 -0.000197754 -0.000132048 -4.71653e-05 5.35694e-05 0.000166258 0.000283557 0.000403888 0.00051807 0.000625932 0.000718563 0.000796639 0.000852242 0.000886531 0.000894237 0.000876785 0.000830883 0.000757146 0.000654037 0.000521942 0.000365121 0.00019498 3.46424e-05 -9.12371e-05 -0.000165706 -0.000203285 -0.000243826 -0.000339177 -0.00050558 -0.000712397 -0.000892025 -0.00100024 -0.00103782 -0.00104219 -0.00102919 -0.0009871 -0.000896891 -0.000776397 -0.000655225 -0.000545886 -0.000428589 -0.000295475 -0.000155651 -2.07838e-05 0.000119347 0.000267364 0.000411002 0.000536563 0.000647549 0.00074495 0.000817498 0.000860185 0.00087779 0.000873884 0.000840234 0.000783351 0.000707794 0.000618379 0.000510492 0.00039733 0.000280297 0.000164012 5.1282e-05 -4.70079e-05 -0.000130041 -0.000195863 -0.000236661 -0.000256914 -0.000256587 -0.00024327 -0.000217288 -0.000194899 -0.00017702 -0.000172773 -0.000186831 -0.000214862 -0.000253687 -0.000288191 -0.000314337 -0.00031311 -0.00029051 -0.000244486 -0.000186479 -0.000137648 -0.000102504 -0.000102056 -0.000124223 -0.000164742 -0.000199007 -0.000207421 -0.000189566 -0.000135925 -8.36041e-05 -4.14047e-05 -3.323e-05 -6.63164e-05 -0.000103906 -0.000142194 -0.000135717 -9.38698e-05 -4.5086e-05 1.03505e-06 -1.12238e-05 -4.66838e-05 -8.63844e-05 -0.000109084 -6.45926e-05 -2.24498e-05 1.06019e-05 1.1293e-05 -4.86447e-05 -6.47968e-05 -5.6105e-05 -2.62425e-05 2.80875e-05 6.88954e-06 -1.93001e-05 -2.05447e-05 -2.56722e-05 2.17511e-07 8.82527e-06 -4.77885e-06 -3.91799e-06 -2.10523e-06 -1.74288e-06 4.0721e-07 5.64755e-08 -5.32753e-07 -1.1842e-07 -8.70957e-09 -1.06172e-08 0 0 
0 0 -1.76701e-08 -1.86634e-08 -8.80616e-08 -4.6997e-07 6.42892e-08 6.47042e-07 -2.96824e-06 -3.6876e-06 9.31048e-07 -2.27575e-06 4.51394e-06 -5.9494e-06 -4.77871e-05 -1.00425e-05 2.60073e-05 7.99318e-06 8.85106e-06 -9.18822e-05 -0.000115041 -1.39826e-05 1.18322e-05 5.06829e-05 -1.87618e-05 -0.000143258 -0.00013953 -0.000116387 -2.36469e-05 4.65597e-05 -8.51222e-06 -7.48023e-05 -0.000180014 -0.000216446 -0.000157494 -9.12678e-05 -4.41368e-06 -7.1544e-06 -7.45966e-05 -0.000167586 -0.000271218 -0.000291084 -0.00026727 -0.000189586 -0.00010871 -8.07978e-05 -9.40635e-05 -0.000181936 -0.000281264 -0.000379674 -0.000439241 -0.000438807 -0.000404141 -0.000327976 -0.000266305 -0.000219673 -0.000219063 -0.000261494 -0.000332205 -0.000426235 -0.000504859 -0.000569815 -0.000589421 -0.000576085 -0.00052029 -0.000436185 -0.000334302 -0.000219941 -0.000111278 -2.11554e-06 9.09097e-05 0.000183937 0.000264815 0.000350495 0.000434141 0.000526608 0.000623703 0.000726253 0.000831595 0.00093062 0.00102187 0.00109056 0.00113842 0.0011468 0.00111717 0.00103113 0.000896809 0.000714701 0.000524509 0.000359299 0.000262473 0.000219705 0.000176922 3.58697e-05 -0.000249657 -0.000646713 -0.00103042 -0.00129773 -0.00142566 -0.00148457 -0.00152254 -0.00152169 -0.00142294 -0.00122984 -0.000997526 -0.000780356 -0.000563484 -0.000332629 -9.84627e-05 0.000105055 0.00029578 0.000488216 0.000678087 0.000828178 0.000948946 0.00104341 0.0011107 0.00112533 0.0011099 0.00106813 0.00100424 0.000910204 0.000813045 0.000714833 0.000613426 0.000515619 0.000428492 0.000348414 0.000261394 0.000183126 9.47757e-05 1.46309e-06 -0.000106979 -0.000212086 -0.000327491 -0.000431668 -0.000514851 -0.000571323 -0.000585503 -0.000562629 -0.000495762 -0.000418333 -0.000323716 -0.000253306 -0.000212454 -0.000211436 -0.000257367 -0.000320706 -0.000396895 -0.000432019 -0.000432942 -0.000372527 -0.000275511 -0.000177492 -8.81495e-05 -7.52306e-05 -0.000104442 -0.000185267 -0.000264004 -0.00028757 -0.000266806 -0.000164635 -7.23247e-05 -5.19143e-06 -2.97528e-06 -8.8703e-05 -0.000154936 -0.000215043 -0.00017908 -7.48487e-05 -8.09546e-06 4.81241e-05 -2.19682e-05 -0.000114544 -0.00013767 -0.000141583 -1.89655e-05 4.95396e-05 1.12519e-05 -1.41978e-05 -0.000113855 -9.09748e-05 8.48353e-06 7.66544e-06 2.54749e-05 -1.00999e-05 -4.73076e-05 -5.95261e-06 4.40054e-06 -2.28199e-06 8.95105e-07 -3.6568e-06 -2.94008e-06 6.27384e-07 7.17221e-08 -4.75559e-07 -1.6887e-07 -1.03409e-08 0 0 
0 0 -2.54611e-08 -1.0556e-07 -2.8708e-07 -1.4229e-07 4.14475e-07 -2.96824e-06 -4.3031e-06 5.78632e-06 -6.27933e-07 -1.2929e-05 -9.07517e-06 -4.06294e-05 9.72176e-06 7.63636e-05 -5.24565e-05 -8.57677e-05 -0.00010059 -9.51811e-05 0.000133518 7.14862e-05 -8.24418e-05 -0.000149805 -0.000273517 -9.01687e-05 6.7502e-05 6.05306e-05 3.42238e-05 -0.000201112 -0.000301452 -0.000255046 -0.00016631 4.14824e-05 6.00557e-05 -1.74562e-05 -0.000170565 -0.000373187 -0.00039581 -0.000359759 -0.000203409 -5.05232e-05 -1.82817e-05 -5.03453e-05 -0.000234381 -0.000404578 -0.000550278 -0.000605563 -0.00053091 -0.00042688 -0.000268598 -0.000192933 -0.000177838 -0.000259389 -0.000420384 -0.000586395 -0.000763006 -0.000852304 -0.000893914 -0.000840387 -0.000741291 -0.000612299 -0.000475449 -0.00038141 -0.000309263 -0.000307006 -0.000322749 -0.000383331 -0.000433702 -0.000477303 -0.000481449 -0.000435396 -0.000337524 -0.000169174 4.17234e-05 0.00031675 0.000610819 0.000942113 0.00126018 0.00157945 0.00185473 0.00209407 0.00226106 0.00235541 0.00234914 0.00223857 0.00202949 0.0017587 0.00149717 0.00130372 0.00120387 0.00110778 0.00088289 0.000391105 -0.000329482 -0.00111429 -0.00172081 -0.00207854 -0.00225713 -0.00240926 -0.00252442 -0.00251586 -0.00229389 -0.00194172 -0.00153967 -0.00112494 -0.000646045 -0.000151154 0.000303245 0.000685851 0.00106331 0.00142831 0.00174389 0.00198081 0.0021744 0.00231527 0.00236463 0.00232572 0.00222395 0.00206707 0.00182549 0.00154833 0.00124133 0.000929669 0.000594142 0.000305469 4.01523e-05 -0.000172475 -0.000340962 -0.00043 -0.000474229 -0.000472247 -0.000422516 -0.000370318 -0.00031558 -0.000299701 -0.000301051 -0.000376314 -0.00046672 -0.000597574 -0.000728225 -0.000827966 -0.000880292 -0.000842031 -0.000751693 -0.00057162 -0.000408775 -0.000249091 -0.000166342 -0.000182746 -0.000257953 -0.000416824 -0.000523304 -0.000595987 -0.000540545 -0.000398699 -0.000227971 -4.38128e-05 -1.27731e-05 -4.39417e-05 -0.00019966 -0.000357806 -0.000391958 -0.000369963 -0.000166984 -1.44566e-05 5.99003e-05 4.15655e-05 -0.000165432 -0.000253596 -0.000298301 -0.000200059 3.36385e-05 5.92083e-05 6.57811e-05 -8.96312e-05 -0.000270448 -0.000148642 -8.20856e-05 6.97532e-05 0.000131084 -9.45015e-05 -9.97206e-05 -8.50116e-05 -5.20315e-05 7.51702e-05 9.3663e-06 -4.02742e-05 -9.06574e-06 -1.28457e-05 -6.58068e-07 5.6963e-06 -4.27895e-06 -2.9445e-06 4.20446e-07 -1.95152e-07 -2.56474e-07 -7.66314e-08 0 0 
0 0 -3.51883e-08 -1.82828e-07 -3.63197e-07 -8.62296e-08 -1.75614e-06 -3.6876e-06 5.78632e-06 -2.23014e-07 -2.99288e-05 -4.70658e-06 4.00442e-06 2.39366e-06 6.19496e-05 -0.000130128 -0.000185024 6.50107e-05 3.22052e-05 0.000149448 -1.45071e-05 -0.000425444 -0.000204106 -9.03677e-05 0.000114453 0.000273488 -0.000142985 -0.000305953 -0.00041629 -0.000352455 6.50951e-05 0.000129229 0.000136526 -9.95358e-05 -0.00047787 -0.000518271 -0.000520823 -0.000228134 4.31753e-05 8.98464e-05 5.63287e-05 -0.000293029 -0.000552847 -0.000756029 -0.000786579 -0.000564603 -0.000368653 -9.81263e-05 -5.12176e-05 -0.000137624 -0.000367188 -0.000708532 -0.000943042 -0.00115437 -0.00113894 -0.00104766 -0.000837134 -0.000606119 -0.000452477 -0.000347819 -0.000420953 -0.000537955 -0.000783188 -0.00100651 -0.00123209 -0.00138315 -0.00143247 -0.00140255 -0.00123574 -0.00102363 -0.000697389 -0.000375102 1.38416e-05 0.000371086 0.000750188 0.00109401 0.0014283 0.00173766 0.00201275 0.0022734 0.00247729 0.00266101 0.00274795 0.00277717 0.00265764 0.00245014 0.00212073 0.00181961 0.00158458 0.0015279 0.00150203 0.00133584 0.000737323 -0.000298546 -0.00158663 -0.00269691 -0.00342512 -0.00379917 -0.0041001 -0.00440178 -0.00460652 -0.00451152 -0.0041657 -0.00368314 -0.00315373 -0.00246667 -0.00166607 -0.000861898 -0.000208417 0.00039271 0.000954485 0.00147587 0.00184787 0.00218053 0.00244994 0.00266618 0.0027301 0.00276358 0.00271995 0.00262519 0.0024276 0.00223772 0.00199752 0.00171726 0.00140686 0.00109048 0.00074989 0.000363637 1.75676e-05 -0.000361428 -0.000689692 -0.00101067 -0.00121305 -0.00138866 -0.00142403 -0.00137033 -0.00122382 -0.000997842 -0.000761979 -0.000515362 -0.000403111 -0.000327038 -0.000435153 -0.000591686 -0.000815064 -0.00102759 -0.00112432 -0.00113609 -0.000926065 -0.000694207 -0.000351242 -0.000124481 -3.88405e-05 -8.45729e-05 -0.000360956 -0.000556795 -0.000775603 -0.00074919 -0.000546533 -0.00028829 5.79108e-05 9.64076e-05 4.88775e-05 -0.000226166 -0.000518884 -0.000519365 -0.000477409 -9.49882e-05 0.000138559 0.000130973 6.35285e-05 -0.000356499 -0.000416512 -0.000304894 -0.000142945 0.000267847 0.000111326 -9.05581e-05 -0.00020269 -0.000420853 -1.54147e-05 0.000146581 3.09581e-05 6.349e-05 -0.000183195 -0.000128772 6.08945e-05 2.12296e-06 3.78984e-06 -4.79162e-06 -2.9637e-05 -2.62835e-07 5.66593e-06 -3.6364e-06 -1.75184e-06 -1.67188e-07 -2.147e-07 -1.3079e-07 0 0 
0 0 -6.71478e-08 -3.73436e-07 -6.76684e-07 -4.10224e-07 -2.11812e-06 9.31048e-07 -6.27933e-07 -2.99288e-05 -1.0281e-06 4.95923e-05 -3.85024e-05 -3.55261e-05 -9.9886e-05 -0.000166137 0.00027704 0.000128411 -0.0002345 -0.000190126 -0.000531016 3.77634e-05 0.000471156 4.49399e-05 -1.31065e-05 -0.000609979 -0.000655988 -3.51048e-05 8.27512e-05 0.000435009 9.66093e-05 -0.000510491 -0.00062044 -0.00081774 -0.000300043 0.000133068 0.000248264 0.000280947 -0.00033761 -0.000699335 -0.00100769 -0.00100366 -0.000534233 -0.000238841 0.000189055 0.000131911 -0.000141926 -0.000565652 -0.00113499 -0.00133941 -0.00149201 -0.00121341 -0.000881806 -0.000510846 -0.000203343 -0.000225003 -0.000321316 -0.000758981 -0.00114983 -0.00163009 -0.00195121 -0.0021047 -0.00211906 -0.00187266 -0.00161904 -0.00118923 -0.000886695 -0.000540011 -0.000363468 -0.000233516 -0.000209267 -0.000251543 -0.000276372 -0.000339766 -0.000271541 -0.000206021 5.24839e-05 0.000325958 0.000789276 0.00125544 0.00184538 0.00238431 0.0029213 0.00330975 0.00356218 0.00364707 0.00365614 0.00374107 0.00398087 0.0043578 0.00450788 0.00409369 0.00281418 0.000993558 -0.000875679 -0.00216065 -0.00291688 -0.0033903 -0.00399395 -0.00450422 -0.00472136 -0.00444172 -0.00400755 -0.00344925 -0.00274594 -0.00164703 -0.00043477 0.000714685 0.00163739 0.00253144 0.00325808 0.00376993 0.00402598 0.00421254 0.0042564 0.00409428 0.00377591 0.00338813 0.00293127 0.00233081 0.0017793 0.00122731 0.00076912 0.000291665 3.90062e-05 -0.000200393 -0.000280355 -0.000343854 -0.000255042 -0.000233822 -0.000196162 -0.000200915 -0.000334923 -0.000529977 -0.000870943 -0.00117355 -0.00161096 -0.00184729 -0.00208087 -0.00207657 -0.00192279 -0.00160093 -0.0011307 -0.000731385 -0.000287444 -0.000202715 -0.000178785 -0.000484196 -0.000863845 -0.00119256 -0.00147052 -0.00132587 -0.00111996 -0.000552934 -0.000132019 0.00014767 0.000198282 -0.000234492 -0.000525008 -0.000997753 -0.000998747 -0.000690174 -0.000338492 0.000283379 0.000252992 0.000137736 -0.000291056 -0.000815761 -0.000623182 -0.000510085 9.55987e-05 0.000442212 9.03436e-05 -3.22782e-05 -0.000646771 -0.000601946 -1.41833e-05 4.33782e-05 0.000463273 3.60427e-05 -0.000525217 -0.000188656 -0.000232348 0.00012599 0.000272683 -0.000164701 -9.90146e-05 -3.5434e-05 -3.82706e-05 4.88163e-05 -1.15819e-06 -2.96825e-05 -6.56454e-07 9.32109e-07 -2.23128e-06 -4.177e-07 -4.0418e-07 -3.19492e-07 0 0 
0 0 -2.92501e-07 -4.78441e-07 -1.9511e-08 -5.3855e-07 -3.9497e-06 -2.27575e-06 -1.2929e-05 -4.70658e-06 4.95923e-05 -6.39646e-05 -0.000134717 5.18279e-05 -1.20945e-05 0.000189819 5.35052e-05 -0.00073283 -0.000159618 0.000117033 0.000243434 0.000663288 -0.00063725 -0.000821763 -0.000424563 -0.000292657 0.000823866 0.000398245 -0.00028031 -0.000600337 -0.00129405 -0.000467546 8.83971e-05 0.000443898 0.000684933 -0.000325429 -0.000769547 -0.00132515 -0.00129367 -0.000465218 -8.58596e-05 0.000602848 0.000348738 -0.000198826 -0.000840071 -0.00169063 -0.00168686 -0.00167592 -0.000990249 -0.000369989 2.3152e-05 0.000273862 -0.000217423 -0.000650449 -0.0015446 -0.00210808 -0.00253458 -0.00265006 -0.00230682 -0.00196661 -0.00126829 -0.000912969 -0.000481102 -0.000478456 -0.000608512 -0.000970353 -0.00151003 -0.00195989 -0.00252324 -0.00274433 -0.00299058 -0.00279661 -0.00257455 -0.00197365 -0.00131983 -0.00044285 0.000495365 0.00148732 0.00254418 0.00350206 0.00450257 0.00524949 0.00595363 0.00625102 0.00645549 0.00632929 0.00639123 0.00652294 0.00705386 0.00735182 0.00708991 0.00549969 0.00291049 -0.000144774 -0.00250002 -0.00398171 -0.00481655 -0.00581039 -0.00686325 -0.0076452 -0.0076436 -0.00724989 -0.00671504 -0.0061306 -0.00495021 -0.00331443 -0.0014396 0.000222259 0.00195417 0.00352239 0.00489494 0.00571884 0.00645838 0.0069174 0.0072419 0.00709845 0.00697591 0.00655282 0.00604023 0.00519361 0.00445047 0.0034809 0.00249775 0.00144819 0.000502849 -0.000441805 -0.00133552 -0.00195146 -0.00253597 -0.00277937 -0.0029543 -0.00269215 -0.00250372 -0.0019468 -0.00148378 -0.000958338 -0.000585597 -0.000421968 -0.000432114 -0.000876225 -0.00122397 -0.00193613 -0.00227776 -0.00260086 -0.00249741 -0.00208116 -0.00150915 -0.000626351 -0.000195096 0.000306391 4.08352e-05 -0.000356267 -0.00096651 -0.00165909 -0.00166948 -0.00167617 -0.000835096 -0.000183354 0.00036397 0.000608949 -7.61666e-05 -0.000465694 -0.00128981 -0.00131108 -0.000763843 -0.000321769 0.000684735 0.000436874 9.59433e-05 -0.000460475 -0.0012877 -0.000595671 -0.000289788 0.000391256 0.000810683 -0.000289904 -0.000419881 -0.000811672 -0.000629528 0.000652904 0.000239021 0.000114023 -0.000158739 -0.000724241 5.22446e-05 0.000186629 -1.24925e-05 5.07009e-05 -0.000133484 -6.33849e-05 4.8785e-05 -4.82269e-06 -1.2789e-05 -2.37801e-06 -4.08231e-06 -1.79801e-07 -1.35372e-07 -4.40878e-07 0 0 
0 0 -4.25398e-07 2.75593e-08 5.76276e-07 -5.31801e-06 -4.80716e-06 4.51394e-06 -9.07517e-06 4.00442e-06 -3.85024e-05 -0.000134717 0.000144513 0.000138579 -0.000229523 -0.000119298 -0.000576103 7.98371e-05 0.000992911 -0.000221377 -0.000284366 -0.000995726 -0.00105776 0.000934596 0.000559825 0.000467352 -0.000282534 -0.00180736 -0.000748776 -0.000343856 0.000606446 0.00127042 -0.000166653 -0.000603872 -0.0017194 -0.0016971 -0.00044437 -7.97836e-07 0.00116007 0.000614452 -0.000250632 -0.00111517 -0.0023334 -0.00191959 -0.00169319 -0.000489861 0.000406155 0.000563779 0.000605748 -0.000644712 -0.00139737 -0.00259577 -0.00303467 -0.00291764 -0.00255609 -0.0014229 -0.000881265 -1.40832e-05 -6.9303e-05 -0.000246593 -0.000973891 -0.0019828 -0.0028031 -0.00384561 -0.00414304 -0.00454603 -0.00413505 -0.00379928 -0.00296625 -0.00220287 -0.00138279 -0.000564665 -4.23725e-05 0.000596833 0.000795591 0.001254 0.00129794 0.00171683 0.00183847 0.00233911 0.00262615 0.00314182 0.0034178 0.00369524 0.00382964 0.00411893 0.00483058 0.00599672 0.00745688 0.00815841 0.00747773 0.00477736 0.00117903 -0.00232123 -0.00430056 -0.00545141 -0.00629591 -0.00787803 -0.00918861 -0.00993541 -0.0095744 -0.00928617 -0.00884645 -0.00830443 -0.00674223 -0.00495947 -0.00291945 -0.00107433 0.00116182 0.00297721 0.0043519 0.0050335 0.00565604 0.00583963 0.00568183 0.00526456 0.00487552 0.00438003 0.00366378 0.00316748 0.0026311 0.00229801 0.00175677 0.00170164 0.00132152 0.00123638 0.000802104 0.000658697 -6.68924e-06 -0.00053439 -0.00130663 -0.00215377 -0.00295822 -0.00376796 -0.00410756 -0.00453002 -0.00407728 -0.00376244 -0.00275243 -0.00192713 -0.000922376 -0.000217435 -1.35599e-05 4.69155e-05 -0.000851352 -0.00138574 -0.00251789 -0.00289308 -0.00299268 -0.00256388 -0.00138546 -0.000609816 0.000635712 0.000575185 0.000424482 -0.000477687 -0.00167765 -0.00189782 -0.00233468 -0.00111205 -0.000241138 0.000618421 0.00117527 -1.23492e-06 -0.000455785 -0.00169708 -0.00172184 -0.000595778 -0.000158062 0.00125673 0.000597662 -0.000358986 -0.000753865 -0.00179523 -0.000285794 0.000453556 0.000546235 0.000915696 -0.00104763 -0.000986152 -0.000283383 -0.00022074 0.000977848 7.68116e-05 -0.00056998 -0.000118654 -0.000227333 0.000136428 0.00014222 -0.000133457 -3.8324e-05 3.79579e-06 -9.07874e-06 4.16992e-06 -4.59302e-06 -5.05679e-06 -1.00324e-06 1.07969e-07 0 0 