<?xml version="1.0"?>
<VTKFile type="ImageData" version="0.1" byte_order="LittleEndian">
<ImageData WholeExtent="0 599 0 599 0 0" Origin="0 0 0" Spacing="5 5 0">
<Piece Extent="0 599 0 599 0 0">
<PointData Scalars="Amplitude">
<DataArray type="Float32" Name="Amplitude" format="ascii">
0 0 0 0 0 0 0 0 0 0 0 0 0 0 0 0 0 0 0 0 0 0 0 0 0 0 0 0 0 0 0 0 0 0 0 0 0 0 0 0 0 0 0 0 0 0 0 0 0 0 0 0 0 0 0 0 0 0 0 0 0 0 0 0 0 0 0 0 0 0 0 0 0 0 0 0 0 0 0 0 0 0 0 0 0 0 0 0 0 0 0 0 0 0 0 0 0 0 0 0 0 0 0 0 0 0 0 0 0 0 0 0 0 0 0 0 0 0 0 0 0 0 0 0 0 0 0 0 0 0 0 0 0 0 0 0 0 0 0 0 0 0 0 0 0 0 0 0 0 0 0 0 0 0 0 0 0 0 0 0 0 0 0 0 0 0 0 0 0 0 0 0 0 0 0 0 0 0 0 0 0 0 0 0 0 0 0 0 0 0 0 0 0 0 0 0 0 0 0 0 0 0 0 0 0 0 0 0 0 0 0 0 0 0 0 0 0 0 0 0 0 0 0 0 0 0 0 0 0 0 0 0 0 0 0 0 0 0 0 0 0 0 0 0 0 0 0 0 0 0 0 0 0 0 0 0 0 0 0 0 0 0 0 0 0 0 0 0 0 0 0 0 0 0 0 0 0 0 0 0 0 0 0 0 0 0 0 0 0 0 0 0 0 0 0 0 0 0 0 0 0 0 0 0 0 0 0 0 0 0 0 0 0 0 0 0 0 0 0 0 0 0 0 0 0 0 0 0 0 0 0 0 0 0 0 0 0 0 0 0 0 0 0 0 0 0 0 0 0 0 0 0 0 0 0 0 0 0 0 0 0 0 0 0 0 0 0 0 0 0 0 0 0 0 0 0 0 0 0 0 0 0 0 0 0 0 0 0 0 0 0 0 0 0 0 0 0 0 0 0 0 0 0 0 0 0 0 0 0 0 0 0 0 0 0 0 0 0 0 0 0 0 0 0 0 0 0 0 0 0 0 0 0 0 0 0 0 0 0 0 0 0 0 0 0 0 0 0 0 0 0 0 0 0 0 0 0 0 0 0 0 0 0 0 0 0 0 0 0 0 0 0 0 0 0 0 0 0 0 0 0 0 0 0 0 0 0 0 0 0 0 0 0 0 0 0 0 0 0 0 0 0 0 0 0 0 0 0 0 0 0 0 0 0 0 0 0 0 0 0 0 0 0 0 0 0 0 0 0 0 0 0 0 0 0 0 0 0 0 0 0 0 0 0 0 0 0 0 0 0 0 0 0 0 0 0 0 0 0 0 0 0 0 0 0 0 0 0 0 0 0 0 0 0 0 0 0 0 0 0 0 0 0 0 0 0 0 0 0 0 0 0 0 0 0 0 0 0 0 0 
0 0 0 0 0 0 0 0 0 0 0 0 0 0 0 0 0 0 0 0 0 0 0 0 0 0 0 0 0 0 0 0 0 0 0 0 0 0 0 0 0 0 0 0 0 0 0 0 0 0 0 0 0 0 0 0 0 0 0 0 0 0 0 0 0 0 0 0 0 0 0 0 0 0 0 0 0 0 0 0 0 0 0 0 0 0 0 0 0 0 0 0 0 0 0 0 0 0 0 0 0 0 0 0 0 0 0 0 0 0 0 0 0 0 0 0 0 0 0 0 0 0 0 0 0 0 0 0 0 0 0 0 0 0 0 0 0 0 0 0 0 0 0 0 0 0 0 0 0 0 0 0 0 0 0 0 0 0 0 0 0 0 0 0 0 0 0 0 0 0 0 0 0 0 0 0 0 0 0 0 0 0 0 0 0 0 0 0 0 0 0 0 0 0 0 0 0 0 0 0 0 0 0 0 0 0 0 0 0 0 0 0 0 0 0 0 0 0 0 0 0 0 0 0 0 0 0 0 0 0 0 0 0 0 0 0 0 0 0 0 0 0 0 0 0 0 0 0 0 0 0 0 0 0 0 0 0 0 0 0 0 0 0 0 0 0 0 0 0 0 0 0 0 0 0 0 0 0 0 0 0 0 0 0 0 0 0 0 0 0 0 0 0 0 0 0 0 0 0 0 0 0 0 0 0 0 0 0 0 0 0 0 0 0 0 0 0 0 0 0 0 0 0 0 0 0 0 0 0 0 0 0 0 0 0 0 0 0 0 0 0 0 0 0 0 0 0 0 0 0 0 0 0 0 0 0 0 0 0 0 0 0 0 0 0 0 0 0 0 0 0 0 0 0 0 0 0 0 0 0 0 0 0 0 0 0 0 0 0 0 0 0 0 0 0 0 0 0 0 0 0 0 0 0 0 0 0 0 0 0 0 0 0 0 0 0 0 0 0 0 0 0 0 0 0 0 0 0 0 0 0 0 0 0 0 0 0 0 0 0 0 0 0 0 0 0 0 0 0 0 0 0 0 0 0 0 0 0 0 0 0 0 0 0 0 0 0 0 0 0 0 0 0 0 0 0 0 0 0 0 0 0 0 0 0 0 0 0 0 0 0 0 0 0 0 0 0 0 0 0 0 0 0 0 0 0 0 0 0 0 0 0 0 0 0 0 0 0 0 0 0 0 0 0 0 0 0 0 0 0 0 0 0 0 0 0 0 0 0 0 0 0 0 0 0 0 0 0 0 0 0 0 0 0 0 0 0 0 0 0 0 0 0 0 0 0 0 0 0 0 0 0 0 0 0 0 0 0 0 0 0 0 0 0 0 0 0 0 0 0 0 0 0 0 0 0 0 0 0 0 
0 0 0 0 0 0 0 0 0 0 0 0 0 0 0 0 0 0 0 0 0 0 0 0 0 0 0 0 0 0 0 0 0 0 0 0 0 0 0 0 0 0 0 0 0 0 0 0 0 0 0 0 0 0 0 0 0 0 0 0 0 0 0 0 0 0 0 0 0 0 0 0 0 0 0 0 0 0 0 0 0 0 0 0 0 0 0 0 0 0 0 0 0 -0 -2.85004e-44 -2.13074e-43 -7.03009e-43 -9.71727e-43 2.16196e-42 1.54594e-41 3.70695e-41 7.14409e-42 -2.68984e-40 -1.0118e-39 -1.5162e-39 2.32679e-39 1.96584e-38 5.25123e-38 4.2548e-38 -2.2769e-37 -1.10911e-36 -2.33187e-36 -5.90917e-37 1.37841e-35 5.26569e-35 9.4711e-35 -9.10259e-36 -6.39986e-34 -2.19403e-33 -3.72289e-33 3.97872e-34 2.3896e-32 8.12637e-32 1.43902e-31 3.29865e-32 -7.03037e-31 -2.62926e-30 -5.2526e-30 -3.936e-30 1.44363e-29 7.04975e-29 1.68045e-28 2.18365e-28 -9.36156e-29 -1.39693e-27 -4.31034e-27 -7.99303e-27 -6.86566e-27 1.37285e-26 7.7567e-26 1.99535e-25 3.27711e-25 2.31193e-25 -6.26863e-25 -3.05396e-24 -7.52983e-24 -1.24563e-23 -1.08887e-23 1.3296e-23 8.56182e-23 2.28192e-22 4.19482e-22 5.142e-22 1.32782e-22 -1.41218e-21 -4.98208e-21 -1.09748e-20 -1.78258e-20 -1.94804e-20 -2.38447e-21 5.59344e-20 1.82275e-19 3.90193e-19 6.41579e-19 7.83606e-19 4.71025e-19 -8.88391e-19 -4.08484e-18 -9.82438e-18 -1.80525e-17 -2.67513e-17 -3.02325e-17 -1.72922e-17 2.98258e-17 1.33936e-16 3.16364e-16 5.82391e-16 8.96247e-16 1.14552e-15 1.0997e-15 3.75362e-16 -1.56859e-15 -5.37076e-15 -1.15974e-14 -2.04169e-14 -3.10841e-14 -4.124e-14 -4.6092e-14 -3.76448e-14 -4.27326e-15 6.89318e-14 1.98491e-13 3.98923e-13 6.7662e-13 1.02087e-12 1.39212e-12 1.70822e-12 1.83048e-12 1.55223e-12 5.94095e-13 -1.38895e-12 -4.7828e-12 -9.9657e-12 -1.72306e-11 -2.66755e-11 -3.80603e-11 -5.06372e-11 -6.29614e-11 -7.27013e-11 -7.64713e-11 -6.97149e-11 -4.66757e-11 -4.92044e-13 7.65469e-11 1.9255e-10 3.55352e-10 5.71607e-10 8.45648e-10 1.17814e-09 1.56453e-09 1.99346e-09 2.44502e-09 2.88922e-09 3.28445e-09 3.5764e-09 3.69721e-09 3.5652e-09 3.08514e-09 2.14915e-09 6.38281e-10 -1.57524e-09 -4.62507e-09 -8.64728e-09 -1.37763e-08 -2.01403e-08 -2.78567e-08 -3.7027e-08 -4.77318e-08 -6.00258e-08 -7.39332e-08 -8.94429e-08 -1.06505e-07 -1.25026e-07 -1.44867e-07 -1.65841e-07 -1.87709e-07 -2.1018e-07 -2.32909e-07 -2.55498e-07 -2.77494e-07 -2.98394e-07 -3.17638e-07 -3.3462e-07 -3.48686e-07 -3.59134e-07 -3.65228e-07 -3.66194e-07 -3.61228e-07 -3.49506e-07 -3.3019e-07 -3.02435e-07 -2.65405e-07 -2.18277e-07 -1.6026e-07 -9.06028e-08 -8.61065e-09 8.63417e-08 1.94795e-07 3.1719e-07 4.53853e-07 6.04984e-07 7.70644e-07 9.50737e-07 1.14501e-06 1.35303e-06 1.5742e-06 1.80773e-06 2.05266e-06 2.30782e-06 2.5719e-06 2.8434e-06 3.12067e-06 3.4019e-06 3.68517e-06 3.96843e-06 4.24956e-06 4.52637e-06 4.79661e-06 5.05805e-06 5.30846e-06 5.54565e-06 5.76751e-06 5.97203e-06 6.15732e-06 6.32165e-06 6.46347e-06 6.58141e-06 6.67436e-06 6.74141e-06 6.7819e-06 6.79545e-06 6.7819e-06 6.74141e-06 6.67436e-06 6.58141e-06 6.46347e-06 6.32165e-06 6.15732e-06 5.97203e-06 5.76751e-06 5.54565e-06 5.30846e-06 5.05805e-06 4.79661e-06 4.52637e-06 4.24956e-06 3.96843e-06 3.68517e-06 3.4019e-06 3.12067e-06 2.8434e-06 2.5719e-06 2.30782e-06 2.05266e-06 1.80773e-06 1.5742e-06 1.35303e-06 1.14501e-06 9.50737e-07 7.70644e-07 6.04984e-07 4.53853e-07 3.1719e-07 1.94795e-07 8.63417e-08 -8.61065e-09 -9.06028e-08 -1.6026e-07 -2.18277e-07 -2.65405e-07 -3.02435e-07 -3.3019e-07 -3.49506e-07 -3.61228e-07 -3.66194e-07 -3.65228e-07 -3.59134e-07 -3.48686e-07 -3.3462e-07 -3.17638e-07 -2.98394e-07 -2.77494e-07 -2.55498e-07 -2.32909e-07 -2.1018e-07 -1.87709e-07 -1.65841e-07 -1.44867e-07 -1.25026e-07 -1.06505e-07 -8.94429e-08 -7.39332e-08 -6.00258e-08 -4.77318e-08 -3.7027e-08 -2.78567e-08 -2.01403e-08 -1.37763e-08 -8.64728e-09 -4.62507e-09 -1.57524e-09 6.38281e-10 2.14915e-09 3.08514e-09 3.5652e-09 3.69721e-09 3.5764e-09 3.28445e-09 2.88922e-09 2.44502e-09 1.99346e-09 1.56453e-09 1.17814e-09 8.45648e-10 5.71607e-10 3.55352e-10 1.9255e-10 7.65469e-11 -4.92044e-13 -4.66757e-11 -6.97149e-11 -7.64713e-11 -7.27013e-11 -6.29614e-11 -5.06372e-11 -3.80603e-11 -2.66755e-11 -1.72306e-11 -9.9657e-12 -4.7828e-12 -1.38895e-12 5.94095e-13 1.55223e-12 1.83048e-12 1.70822e-12 1.39212e-12 1.02087e-12 6.7662e-13 3.98923e-13 1.98491e-13 6.89318e-14 -4.27326e-15 -3.76448e-14 -4.6092e-14 -4.124e-14 -3.10841e-14 -2.04169e-14 -1.15974e-14 -5.37076e-15 -1.56859e-15 3.75362e-16 1.0997e-15 1.14552e-15 8.96247e-16 5.82391e-16 3.16364e-16 1.33936e-16 2.98258e-17 -1.72922e-17 -3.02325e-17 -2.67513e-17 -1.80525e-17 -9.82438e-18 -4.08484e-18 -8.88391e-19 4.71025e-19 7.83606e-19 6.41579e-19 3.90193e-19 1.82275e-19 5.59344e-20 -2.38447e-21 -1.94804e-20 -1.78258e-20 -1.09748e-20 -4.98208e-21 -1.41218e-21 1.32782e-22 5.142e-22 4.19482e-22 2.28192e-22 8.56182e-23 1.3296e-23 -1.08887e-23 -1.24563e-23 -7.52983e-24 -3.05396e-24 -6.26863e-25 2.31193e-25 3.27711e-25 1.99535e-25 7.7567e-26 1.37285e-26 -6.86566e-27 -7.99303e-27 -4.31034e-27 -1.39693e-27 -9.36156e-29 2.18365e-28 1.68045e-28 7.04975e-29 1.44363e-29 -3.936e-30 -5.2526e-30 -2.62926e-30 -7.03037e-31 3.29865e-32 1.43902e-31 8.12637e-32 2.3896e-32 3.97872e-34 -3.72289e-33 -2.19403e-33 -6.39986e-34 -9.10259e-36 9.4711e-35 5.26569e-35 1.37841e-35 -5.90917e-37 -2.33187e-36 -1.10911e-36 -2.2769e-37 4.2548e-38 5.25123e-38 1.96584e-38 2.32679e-39 -1.5162e-39 -1.0118e-39 -2.68984e-40 7.14409e-42 3.70695e-41 1.54594e-41 2.16196e-42 -9.71727e-43 -7.03009e-43 -2.13074e-43 -2.85004e-44 -0 0 0 0 0 0 0 0 0 0 0 0 0 0 0 0 0 0 0 0 0 0 0 0 0 0 0 0 0 0 0 0 0 0 0 0 0 0 0 0 0 0 0 0 0 0 0 0 0 0 0 0 0 0 0 0 0 0 0 0 0 0 0 0 0 0 0 0 0 0 0 0 0 0 0 0 0 0 0 0 0 0 0 0 0 0 0 0 0 0 0 0 0 
0 0 0 0 0 0 0 0 0 0 0 0 0 0 0 0 0 0 0 0 0 0 0 0 0 0 0 0 0 0 0 0 0 0 0 0 0 0 0 0 0 0 0 0 0 0 0 0 0 0 0 0 0 0 0 0 0 0 0 0 0 0 0 0 0 0 0 0 0 0 0 0 0 0 0 0 0 0 0 0 0 0 0 0 0 0 0 0 0 0 0 0 -1.986e-45 -5.71458e-44 -3.77307e-43 -1.23076e-42 -1.67381e-42 3.92454e-42 2.73508e-41 6.43964e-41 6.75578e-42 -4.90752e-40 -1.79511e-39 -2.55438e-39 4.70384e-39 3.59961e-38 9.24971e-38 6.2939e-38 -4.47962e-37 -2.03539e-36 -4.04103e-36 -1.3903e-37 2.71873e-35 9.68818e-35 1.60732e-34 -6.89032e-35 -1.28064e-33 -4.06329e-33 -6.23872e-33 3.21318e-33 4.91998e-32 1.52829e-31 2.43497e-31 -3.87299e-32 -1.52768e-30 -5.09153e-30 -9.19435e-30 -4.04847e-30 3.54109e-29 1.4356e-28 3.09821e-28 3.28591e-28 -4.36226e-28 -3.12207e-27 -8.51805e-27 -1.39761e-26 -7.1458e-27 4.08481e-26 1.7058e-25 3.90074e-25 5.52893e-25 1.48643e-25 -1.87674e-24 -6.86819e-24 -1.49689e-23 -2.13805e-23 -1.01975e-23 5.11499e-23 2.06993e-22 4.78563e-22 7.73452e-22 7.26499e-22 -4.82973e-22 -4.1627e-21 -1.16098e-20 -2.25065e-20 -3.16556e-20 -2.4154e-20 2.90963e-20 1.70312e-19 4.38484e-19 8.2441e-19 1.18543e-18 1.1225e-18 -1.42299e-19 -3.78717e-18 -1.11268e-17 -2.28015e-17 -3.71498e-17 -4.76509e-17 -3.9774e-17 1.15831e-17 1.41635e-16 3.88343e-16 7.73121e-16 1.26476e-15 1.72445e-15 1.8368e-15 1.04383e-15 -1.48325e-15 -6.7786e-15 -1.58477e-14 -2.91813e-14 -4.59481e-14 -6.2853e-14 -7.27485e-14 -6.32575e-14 -1.58848e-14 9.36564e-14 2.92932e-13 6.06986e-13 1.04818e-12 1.60097e-12 2.20166e-12 2.71435e-12 2.90621e-12 2.42694e-12 8.00009e-13 -2.56494e-12 -8.32749e-12 -1.71281e-11 -2.94464e-11 -4.53988e-11 -6.44763e-11 -8.52299e-11 -1.04924e-10 -1.19189e-10 -1.2172e-10 -1.04084e-10 -5.5691e-11 3.59792e-11 1.84833e-10 4.05229e-10 7.10613e-10 1.11168e-09 1.61408e-09 2.21571e-09 2.90369e-09 3.65107e-09 4.41359e-09 5.12648e-09 5.7017e-09 6.02575e-09 5.9583e-09 5.33181e-09 3.95242e-09 1.602e-09 -1.9582e-09 -6.98262e-09 -1.3735e-08 -2.24809e-08 -3.34788e-08 -4.69705e-08 -6.31708e-08 -8.22566e-08 -1.04356e-07 -1.29536e-07 -1.57794e-07 -1.89045e-07 -2.23113e-07 -2.59721e-07 -2.98482e-07 -3.38891e-07 -3.80321e-07 -4.22012e-07 -4.63067e-07 -5.02452e-07 -5.38985e-07 -5.71342e-07 -5.98052e-07 -6.17495e-07 -6.2791e-07 -6.27397e-07 -6.13924e-07 -5.85337e-07 -5.39373e-07 -4.73676e-07 -3.85813e-07 -2.73301e-07 -1.33632e-07 3.57002e-08 2.3716e-07 4.73141e-07 7.4592e-07 1.05762e-06 1.41016e-06 1.80521e-06 2.24417e-06 2.72808e-06 3.25761e-06 3.83302e-06 4.4541e-06 5.12016e-06 5.82999e-06 6.58184e-06 7.37341e-06 8.20182e-06 9.06367e-06 9.95498e-06 1.08713e-05 1.18075e-05 1.27582e-05 1.37175e-05 1.46792e-05 1.56366e-05 1.6583e-05 1.75114e-05 1.84148e-05 1.9286e-05 2.01181e-05 2.09044e-05 2.16381e-05 2.23132e-05 2.29237e-05 2.34642e-05 2.39302e-05 2.43173e-05 2.4622e-05 2.48417e-05 2.49744e-05 2.50187e-05 2.49744e-05 2.48417e-05 2.4622e-05 2.43173e-05 2.39302e-05 2.34642e-05 2.29237e-05 2.23132e-05 2.16381e-05 2.09044e-05 2.01181e-05 1.9286e-05 1.84148e-05 1.75114e-05 1.6583e-05 1.56366e-05 1.46792e-05 1.37175e-05 1.27582e-05 1.18075e-05 1.08713e-05 9.95498e-06 9.06367e-06 8.20182e-06 7.37341e-06 6.58184e-06 5.82999e-06 5.12016e-06 4.4541e-06 3.83302e-06 3.25761e-06 2.72808e-06 2.24417e-06 1.80521e-06 1.41016e-06 1.05762e-06 7.4592e-07 4.73141e-07 2.3716e-07 3.57002e-08 -1.33632e-07 -2.73301e-07 -3.85813e-07 -4.73676e-07 -5.39373e-07 -5.85337e-07 -6.13924e-07 -6.27397e-07 -6.2791e-07 -6.17495e-07 -5.98052e-07 -5.71342e-07 -5.38985e-07 -5.02452e-07 -4.63067e-07 -4.22012e-07 -3.80321e-07 -3.38891e-07 -2.98482e-07 -2.59721e-07 -2.23113e-07 -1.89045e-07 -1.57794e-07 -1.29536e-07 -1.04356e-07 -8.22566e-08 -6.31708e-08 -4.69705e-08 -3.34788e-08 -2.24809e-08 -1.3735e-08 -6.98262e-09 -1.9582e-09 1.602e-09 3.95242e-09 5.33181e-09 5.9583e-09 6.02575e-09 5.7017e-09 5.12648e-09 4.41359e-09 3.65107e-09 2.90369e-09 2.21571e-09 1.61408e-09 1.11168e-09 7.10613e-10 4.05229e-10 1.84833e-10 3.59792e-11 -5.5691e-11 -1.04084e-10 -1.2172e-10 -1.19189e-10 -1.04924e-10 -8.52299e-11 -6.44763e-11 -4.53988e-11 -2.94464e-11 -1.71281e-11 -8.32749e-12 -2.56494e-12 8.00009e-13 2.42694e-12 2.90621e-12 2.71435e-12 2.20166e-12 1.60097e-12 1.04818e-12 6.06986e-13 2.92932e-13 9.36564e-14 -1.58848e-14 -6.32575e-14 -7.27485e-14 -6.2853e-14 -4.59481e-14 -2.91813e-14 -1.58477e-14 -6.7786e-15 -1.48325e-15 1.04383e-15 1.8368e-15 1.72445e-15 1.26476e-15 7.73121e-16 3.88343e-16 1.41635e-16 1.15831e-17 -3.9774e-17 -4.76509e-17 -3.71498e-17 -2.28015e-17 -1.11268e-17 -3.78717e-18 -1.42299e-19 1.1225e-18 1.18543e-18 8.2441e-19 4.38484e-19 1.70312e-19 2.90963e-20 -2.4154e-20 -3.16556e-20 -2.25065e-20 -1.16098e-20 -4.1627e-21 -4.82973e-22 7.26499e-22 7.73452e-22 4.78563e-22 2.06993e-22 5.11499e-23 -1.01975e-23 -2.13805e-23 -1.49689e-23 -6.86819e-24 -1.87674e-24 1.48643e-25 5.52893e-25 3.90074e-25 1.7058e-25 4.08481e-26 -7.1458e-27 -1.39761e-26 -8.51805e-27 -3.12207e-27 -4.36226e-28 3.28591e-28 3.09821e-28 1.4356e-28 3.54109e-29 -4.04847e-30 -9.19435e-30 -5.09153e-30 -1.52768e-30 -3.87299e-32 2.43497e-31 1.52829e-31 4.91998e-32 3.21318e-33 -6.23872e-33 -4.06329e-33 -1.28064e-33 -6.89032e-35 1.60732e-34 9.68818e-35 2.71873e-35 -1.3903e-37 -4.04103e-36 -2.03539e-36 -4.47962e-37 6.2939e-38 9.24971e-38 3.59961e-38 4.70384e-39 -2.55438e-39 -1.79511e-39 -4.90752e-40 6.75578e-42 6.43964e-41 2.73508e-41 3.92454e-42 -1.67381e-42 -1.23076e-42 -3.77307e-43 -5.71458e-44 -1.986e-45 0 0 0 0 0 0 0 0 0 0 0 0 0 0 0 0 0 0 0 0 0 0 0 0 0 0 0 0 0 0 0 0 0 0 0 0 0 0 0 0 0 0 0 0 0 0 0 0 0 0 0 0 0 0 0 0 0 0 0 0 0 0 0 0 0 0 0 0 0 0 0 0 0 0 0 0 0 0 0 0 0 0 0 0 0 0 0 0 0 0 0 
0 0 0 0 0 0 0 0 0 0 0 0 0 0 0 0 0 0 0 0 0 0 0 0 0 0 0 0 0 0 0 0 0 0 0 0 0 0 0 0 0 0 0 0 0 0 0 0 0 0 0 0 0 0 0 0 0 0 0 0 0 0 0 0 0 0 0 0 0 0 0 0 0 0 0 0 0 0 0 0 0 0 0 0 0 0 0 0 0 0 0 0 -2.45593e-44 -3.24729e-43 -1.47765e-42 -3.24183e-42 2.48322e-43 2.74532e-41 9.4571e-41 1.10641e-40 -3.69521e-40 -2.18748e-39 -4.85201e-39 -2.76273e-40 3.59971e-38 1.29423e-37 1.90865e-37 -2.71293e-37 -2.33388e-36 -6.31289e-36 -5.92905e-36 2.26762e-35 1.20239e-34 2.71228e-34 1.59423e-34 -1.20584e-33 -5.25551e-33 -1.08067e-32 -5.1282e-33 4.83326e-32 1.99809e-31 4.09509e-31 2.56012e-31 -1.47159e-30 -6.56336e-30 -1.45216e-29 -1.41173e-29 2.99301e-29 1.78454e-28 4.56696e-28 6.45509e-28 -1.11572e-28 -3.61156e-27 -1.1762e-26 -2.24957e-26 -2.02174e-26 3.71542e-26 2.187e-25 5.67087e-25 9.2518e-25 6.01273e-25 -1.99755e-24 -9.20175e-24 -2.21345e-23 -3.52134e-23 -2.6217e-23 5.44371e-23 2.80988e-22 7.0568e-22 1.22421e-21 1.3228e-21 -2.40378e-22 -5.5643e-21 -1.69542e-20 -3.45384e-20 -5.11535e-20 -4.44297e-20 3.11863e-20 2.44325e-19 6.62803e-19 1.2836e-18 1.89607e-18 1.87981e-18 -3.42003e-21 -5.66128e-18 -1.72617e-17 -3.59267e-17 -5.90713e-17 -7.61933e-17 -6.36709e-17 1.9438e-17 2.30488e-16 6.30667e-16 1.25232e-15 2.03821e-15 2.74967e-15 2.85298e-15 1.41454e-15 -2.93404e-15 -1.18644e-14 -2.69258e-14 -4.86881e-14 -7.53476e-14 -1.00796e-13 -1.12339e-13 -8.85612e-14 1.80303e-15 1.98681e-13 5.45497e-13 1.07818e-12 1.80668e-12 2.68813e-12 3.59222e-12 4.26162e-12 4.2737e-12 3.01294e-12 -3.32149e-13 -6.73092e-12 -1.72126e-11 -3.26897e-11 -5.36891e-11 -7.9984e-11 -1.10131e-10 -1.40938e-10 -1.66905e-10 -1.79701e-10 -1.67772e-10 -1.16178e-10 -6.79237e-12 1.81023e-10 4.69137e-10 8.78682e-10 1.42733e-09 2.1258e-09 2.97367e-09 3.95459e-09 5.03111e-09 6.13938e-09 7.18404e-09 8.03368e-09 8.51722e-09 8.42165e-09 7.49145e-09 5.42999e-09 1.90314e-09 -3.45469e-09 -1.10322e-08 -2.12308e-08 -3.4451e-08 -5.10788e-08 -7.14687e-08 -9.59264e-08 -1.24691e-07 -1.57917e-07 -1.95654e-07 -2.3783e-07 -2.84235e-07 -3.345e-07 -3.88089e-07 -4.44274e-07 -5.02128e-07 -5.60513e-07 -6.18061e-07 -6.7317e-07 -7.23987e-07 -7.68405e-07 -8.04054e-07 -8.28289e-07 -8.38193e-07 -8.30572e-07 -8.01955e-07 -7.48603e-07 -6.66516e-07 -5.51447e-07 -3.98924e-07 -2.04279e-07 3.7317e-08 3.30817e-07 6.81244e-07 1.09363e-06 1.57297e-06 2.12412e-06 2.75174e-06 3.46022e-06 4.25354e-06 5.13526e-06 6.10836e-06 7.17517e-06 8.33728e-06 9.5955e-06 1.09497e-05 1.23987e-05 1.39406e-05 1.55719e-05 1.72886e-05 1.90849e-05 2.09545e-05 2.28895e-05 2.48812e-05 2.69197e-05 2.8994e-05 3.10924e-05 3.32024e-05 3.53107e-05 3.74033e-05 3.9466e-05 4.14843e-05 4.34435e-05 4.53289e-05 4.71262e-05 4.88212e-05 5.04006e-05 5.18514e-05 5.31618e-05 5.43209e-05 5.5319e-05 5.61475e-05 5.67995e-05 5.72691e-05 5.75527e-05 5.76474e-05 5.75527e-05 5.72691e-05 5.67995e-05 5.61475e-05 5.5319e-05 5.43209e-05 5.31618e-05 5.18514e-05 5.04006e-05 4.88212e-05 4.71262e-05 4.53289e-05 4.34435e-05 4.14843e-05 3.9466e-05 3.74033e-05 3.53107e-05 3.32024e-05 3.10924e-05 2.8994e-05 2.69197e-05 2.48812e-05 2.28895e-05 2.09545e-05 1.90849e-05 1.72886e-05 1.55719e-05 1.39406e-05 1.23987e-05 1.09497e-05 9.5955e-06 8.33728e-06 7.17517e-06 6.10836e-06 5.13526e-06 4.25354e-06 3.46022e-06 2.75174e-06 2.12412e-06 1.57297e-06 1.09363e-06 6.81244e-07 3.30817e-07 3.7317e-08 -2.04279e-07 -3.98924e-07 -5.51447e-07 -6.66516e-07 -7.48603e-07 -8.01955e-07 -8.30572e-07 -8.38193e-07 -8.28289e-07 -8.04054e-07 -7.68405e-07 -7.23987e-07 -6.7317e-07 -6.18061e-07 -5.60513e-07 -5.02128e-07 -4.44274e-07 -3.88089e-07 -3.345e-07 -2.84235e-07 -2.3783e-07 -1.95654e-07 -1.57917e-07 -1.24691e-07 -9.59264e-08 -7.14687e-08 -5.10788e-08 -3.4451e-08 -2.12308e-08 -1.10322e-08 -3.45469e-09 1.90314e-09 5.42999e-09 7.49145e-09 8.42165e-09 8.51722e-09 8.03368e-09 7.18404e-09 6.13938e-09 5.03111e-09 3.95459e-09 2.97367e-09 2.1258e-09 1.42733e-09 8.78682e-10 4.69137e-10 1.81023e-10 -6.79237e-12 -1.16178e-10 -1.67772e-10 -1.79701e-10 -1.66905e-10 -1.40938e-10 -1.10131e-10 -7.9984e-11 -5.36891e-11 -3.26897e-11 -1.72126e-11 -6.73092e-12 -3.32149e-13 3.01294e-12 4.2737e-12 4.26162e-12 3.59222e-12 2.68813e-12 1.80668e-12 1.07818e-12 5.45497e-13 1.98681e-13 1.80303e-15 -8.85612e-14 -1.12339e-13 -1.00796e-13 -7.53476e-14 -4.86881e-14 -2.69258e-14 -1.18644e-14 -2.93404e-15 1.41454e-15 2.85298e-15 2.74967e-15 2.03821e-15 1.25232e-15 6.30667e-16 2.30488e-16 1.9438e-17 -6.36709e-17 -7.61933e-17 -5.90713e-17 -3.59267e-17 -1.72617e-17 -5.66128e-18 -3.42003e-21 1.87981e-18 1.89607e-18 1.2836e-18 6.62803e-19 2.44325e-19 3.11863e-20 -4.44297e-20 -5.11535e-20 -3.45384e-20 -1.69542e-20 -5.5643e-21 -2.40378e-22 1.3228e-21 1.22421e-21 7.0568e-22 2.80988e-22 5.44371e-23 -2.6217e-23 -3.52134e-23 -2.21345e-23 -9.20175e-24 -1.99755e-24 6.01273e-25 9.2518e-25 5.67087e-25 2.187e-25 3.71542e-26 -2.02174e-26 -2.24957e-26 -1.1762e-26 -3.61156e-27 -1.11572e-28 6.45509e-28 4.56696e-28 1.78454e-28 2.99301e-29 -1.41173e-29 -1.45216e-29 -6.56336e-30 -1.47159e-30 2.56012e-31 4.09509e-31 1.99809e-31 4.83326e-32 -5.1282e-33 -1.08067e-32 -5.25551e-33 -1.20584e-33 1.59423e-34 2.71228e-34 1.20239e-34 2.26762e-35 -5.92905e-36 -6.31289e-36 -2.33388e-36 -2.71293e-37 1.90865e-37 1.29423e-37 3.59971e-38 -2.76273e-40 -4.85201e-39 -2.18748e-39 -3.69521e-40 1.10641e-40 9.4571e-41 2.74532e-41 2.48322e-43 -3.24183e-42 -1.47765e-42 -3.24729e-43 -2.45593e-44 0 0 0 0 0 0 0 0 0 0 0 0 0 0 0 0 0 0 0 0 0 0 0 0 0 0 0 0 0 0 0 0 0 0 0 0 0 0 0 0 0 0 0 0 0 0 0 0 0 0 0 0 0 0 0 0 0 0 0 0 0 0 0 0 0 0 0 0 0 0 0 0 0 0 0 0 0 0 0 0 0 0 0 0 0 0 0 0 0 0 0 
0 0 0 0 0 0 0 0 0 0 0 0 0 0 0 0 0 0 0 0 0 0 0 0 0 0 0 0 0 0 0 0 0 0 0 0 0 0 0 0 0 0 0 0 0 0 0 0 0 0 0 0 0 0 0 0 0 0 0 0 0 0 0 0 0 0 0 0 0 0 0 0 0 0 0 0 0 0 0 0 0 0 0 0 0 0 0 0 0 0 -0 -5.74474e-44 -5.73106e-43 -2.22677e-42 -3.84624e-42 4.29624e-42 4.67745e-41 1.29036e-40 7.18694e-41 -7.92009e-40 -3.37821e-39 -5.70539e-39 6.10713e-39 6.53947e-38 1.8496e-37 1.65382e-37 -7.77618e-37 -3.94632e-36 -8.36041e-36 -1.6399e-36 5.23699e-35 1.95682e-34 3.348e-34 -1.25655e-34 -2.63781e-33 -8.4447e-33 -1.28063e-32 8.13001e-33 1.07561e-31 3.26218e-31 4.93249e-31 -2.07254e-31 -3.58725e-30 -1.12701e-29 -1.88598e-29 -2.76192e-30 9.34175e-29 3.36895e-28 6.65045e-28 5.2975e-28 -1.59194e-27 -8.11241e-27 -1.97692e-26 -2.7658e-26 1.0917e-27 1.34408e-25 4.4869e-25 8.95755e-25 9.87798e-25 -6.59871e-25 -6.50609e-24 -1.88217e-23 -3.5002e-23 -3.76576e-23 1.87463e-23 2.12809e-22 6.22675e-22 1.20435e-21 1.53404e-21 4.37174e-22 -4.26997e-21 -1.5326e-20 -3.37935e-20 -5.37776e-20 -5.36148e-20 1.40439e-20 2.24755e-19 6.59811e-19 1.33226e-18 2.03463e-18 2.10491e-18 1.7395e-19 -5.91851e-18 -1.8676e-17 -3.9431e-17 -6.51933e-17 -8.36033e-17 -6.66883e-17 3.40576e-17 2.8602e-16 7.58838e-16 1.48213e-15 2.36777e-15 3.09407e-15 2.96646e-15 7.98548e-16 -5.10123e-15 -1.67056e-14 -3.56376e-14 -6.19602e-14 -9.22735e-14 -1.17171e-13 -1.18404e-13 -6.65262e-14 7.96429e-14 3.69866e-13 8.53301e-13 1.56088e-12 2.47737e-12 3.50264e-12 4.40432e-12 4.76743e-12 3.95195e-12 1.07379e-12 -4.96932e-12 -1.54025e-11 -3.13826e-11 -5.36897e-11 -8.22854e-11 -1.15742e-10 -1.50566e-10 -1.80463e-10 -1.95642e-10 -1.82258e-10 -1.22165e-10 6.86866e-12 2.30285e-10 5.75035e-10 1.0669e-09 1.72673e-09 2.56561e-09 3.57895e-09 4.7398e-09 5.99151e-09 7.24027e-09 8.34795e-09 9.12585e-09 9.32985e-09 8.65769e-09 6.74883e-09 3.18744e-09 -2.4912e-09 -1.07906e-08 -2.22393e-08 -3.73735e-08 -5.67161e-08 -8.07532e-08 -1.09908e-07 -1.44512e-07 -1.84777e-07 -2.30762e-07 -2.82347e-07 -3.39195e-07 -4.00728e-07 -4.66093e-07 -5.34132e-07 -6.03351e-07 -6.71888e-07 -7.37488e-07 -7.97465e-07 -8.48674e-07 -8.87478e-07 -9.09717e-07 -9.10675e-07 -8.85054e-07 -8.26946e-07 -7.29808e-07 -5.86446e-07 -3.89007e-07 -1.28971e-07 2.02826e-07 6.1618e-07 1.12148e-06 1.72964e-06 2.45204e-06 3.30046e-06 4.2869e-06 5.42355e-06 6.72254e-06 8.19586e-06 9.85513e-06 1.17115e-05 1.37752e-05 1.60556e-05 1.85611e-05 2.12982e-05 2.42724e-05 2.74869e-05 3.09431e-05 3.46403e-05 3.85753e-05 4.27424e-05 4.71336e-05 5.17379e-05 5.65419e-05 6.15293e-05 6.66812e-05 7.19762e-05 7.73902e-05 8.2897e-05 8.84681e-05 9.40732e-05 9.96801e-05 0.000105255 0.000110765 0.000116172 0.000121443 0.00012654 0.00013143 0.000136076 0.000140446 0.000144508 0.00014823 0.000151586 0.000154548 0.000157096 0.000159208 0.000160868 0.000162063 0.000162784 0.000163025 0.000162784 0.000162063 0.000160868 0.000159208 0.000157096 0.000154548 0.000151586 0.00014823 0.000144508 0.000140446 0.000136076 0.00013143 0.00012654 0.000121443 0.000116172 0.000110765 0.000105255 9.96801e-05 9.40732e-05 8.84681e-05 8.2897e-05 7.73902e-05 7.19762e-05 6.66812e-05 6.15293e-05 5.65419e-05 5.17379e-05 4.71336e-05 4.27424e-05 3.85753e-05 3.46403e-05 3.09431e-05 2.74869e-05 2.42724e-05 2.12982e-05 1.85611e-05 1.60556e-05 1.37752e-05 1.17115e-05 9.85513e-06 8.19586e-06 6.72254e-06 5.42355e-06 4.2869e-06 3.30046e-06 2.45204e-06 1.72964e-06 1.12148e-06 6.1618e-07 2.02826e-07 -1.28971e-07 -3.89007e-07 -5.86446e-07 -7.29808e-07 -8.26946e-07 -8.85054e-07 -9.10675e-07 -9.09717e-07 -8.87478e-07 -8.48674e-07 -7.97465e-07 -7.37488e-07 -6.71888e-07 -6.03351e-07 -5.34132e-07 -4.66093e-07 -4.00728e-07 -3.39195e-07 -2.82347e-07 -2.30762e-07 -1.84777e-07 -1.44512e-07 -1.09908e-07 -8.07532e-08 -5.67161e-08 -3.73735e-08 -2.22393e-08 -1.07906e-08 -2.4912e-09 3.18744e-09 6.74883e-09 8.65769e-09 9.32985e-09 9.12585e-09 8.34795e-09 7.24027e-09 5.99151e-09 4.7398e-09 3.57895e-09 2.56561e-09 1.72673e-09 1.0669e-09 5.75035e-10 2.30285e-10 6.86866e-12 -1.22165e-10 -1.82258e-10 -1.95642e-10 -1.80463e-10 -1.50566e-10 -1.15742e-10 -8.22854e-11 -5.36897e-11 -3.13826e-11 -1.54025e-11 -4.96932e-12 1.07379e-12 3.95195e-12 4.76743e-12 4.40432e-12 3.50264e-12 2.47737e-12 1.56088e-12 8.53301e-13 3.69866e-13 7.96429e-14 -6.65262e-14 -1.18404e-13 -1.17171e-13 -9.22735e-14 -6.19602e-14 -3.56376e-14 -1.67056e-14 -5.10123e-15 7.98548e-16 2.96646e-15 3.09407e-15 2.36777e-15 1.48213e-15 7.58838e-16 2.8602e-16 3.40576e-17 -6.66883e-17 -8.36033e-17 -6.51933e-17 -3.9431e-17 -1.8676e-17 -5.91851e-18 1.7395e-19 2.10491e-18 2.03463e-18 1.33226e-18 6.59811e-19 2.24755e-19 1.40439e-20 -5.36148e-20 -5.37776e-20 -3.37935e-20 -1.5326e-20 -4.26997e-21 4.37174e-22 1.53404e-21 1.20435e-21 6.22675e-22 2.12809e-22 1.87463e-23 -3.76576e-23 -3.5002e-23 -1.88217e-23 -6.50609e-24 -6.59871e-25 9.87798e-25 8.95755e-25 4.4869e-25 1.34408e-25 1.0917e-27 -2.7658e-26 -1.97692e-26 -8.11241e-27 -1.59194e-27 5.2975e-28 6.65045e-28 3.36895e-28 9.34175e-29 -2.76192e-30 -1.88598e-29 -1.12701e-29 -3.58725e-30 -2.07254e-31 4.93249e-31 3.26218e-31 1.07561e-31 8.13001e-33 -1.28063e-32 -8.4447e-33 -2.63781e-33 -1.25655e-34 3.348e-34 1.95682e-34 5.23699e-35 -1.6399e-36 -8.36041e-36 -3.94632e-36 -7.77618e-37 1.65382e-37 1.8496e-37 6.53947e-38 6.10713e-39 -5.70539e-39 -3.37821e-39 -7.92009e-40 7.18694e-41 1.29036e-40 4.67745e-41 4.29624e-42 -3.84624e-42 -2.22677e-42 -5.73106e-43 -5.74474e-44 -0 0 0 0 0 0 0 0 0 0 0 0 0 0 0 0 0 0 0 0 0 0 0 0 0 0 0 0 0 0 0 0 0 0 0 0 0 0 0 0 0 0 0 0 0 0 0 0 0 0 0 0 0 0 0 0 0 0 0 0 0 0 0 0 0 0 0 0 0 0 0 0 0 0 0 0 0 0 0 0 0 0 0 0 0 0 0 0 0 0 