<?xml version="1.0"?>
<VTKFile type="ImageData" version="0.1" byte_order="LittleEndian">
<ImageData WholeExtent="0 599 0 599 0 0" Origin="0 0 0" Spacing="5 5 0">
<Piece Extent="0 599 0 599 0 0">
<PointData Scalars="Amplitude">
<DataArray type="Float32" Name="Amplitude" format="ascii">
0 0 0 0 0 0 0 0 0 0 0 0 0 0 0 0 0 0 0 0 0 0 0 0 0 0 0 0 0 0 0 0 0 0 0 0 0 0 0 0 0 0 0 0 0 0 0 0 0 0 0 0 0 0 0 0 0 0 0 0 0 0 0 0 0 0 0 0 0 0 0 0 0 0 0 0 0 0 0 0 0 0 0 0 0 0 0 0 0 0 0 0 0 0 0 0 0 0 0 0 0 0 0 0 0 0 0 0 0 0 0 0 0 0 0 0 0 0 0 0 0 0 0 0 0 0 0 0 0 0 0 0 0 0 0 0 0 0 0 0 0 0 0 0 0 0 0 0 0 0 0 0 0 0 0 0 0 0 0 0 0 0 0 0 0 0 0 0 0 0 0 0 0 0 0 0 0 0 0 0 0 0 0 0 0 0 0 0 0 0 0 0 0 0 0 0 0 0 0 0 0 0 0 0 0 0 0 0 0 0 0 0 0 0 0 0 0 0 0 0 0 0 0 0 0 0 0 0 0 0 0 0 0 0 0 0 0 0 0 0 0 0 0 0 0 0 0 0 0 0 0 0 0 0 0 0 0 0 0 0 0 0 0 0 0 0 0 0 0 0 0 0 0 0 0 0 0 0 0 0 0 0 0 0 0 0 0 0 0 0 0 0 0 0 0 0 0 0 0 0 0 0 0 0 0 0 0 0 0 0 0 0 0 0 0 0 0 0 0 0 0 0 0 0 0 0 0 0 0 0 0 0 0 0 0 0 0 0 0 0 0 0 0 0 0 0 0 0 0 0 0 0 0 0 0 0 0 0 0 0 0 0 0 0 0 0 0 0 0 0 0 0 0 0 0 0 0 0 0 0 0 0 0 0 0 0 0 0 0 0 0 0 0 0 0 0 0 0 0 0 0 0 0 0 0 0 0 0 0 0 0 0 0 0 0 0 0 0 0 0 0 0 0 0 0 0 0 0 0 0 0 0 0 0 0 0 0 0 0 0 0 0 0 0 0 0 0 0 0 0 0 0 0 0 0 0 0 0 0 0 0 0 0 0 0 0 0 0 0 0 0 0 0 0 0 0 0 0 0 0 0 0 0 0 0 0 0 0 0 0 0 0 0 0 0 0 0 0 0 0 0 0 0 0 0 0 0 0 0 0 0 0 0 0 0 0 0 0 0 0 0 0 0 0 0 0 0 0 0 0 0 0 0 0 0 0 0 0 0 0 0 0 0 0 0 0 0 0 0 0 0 0 0 0 0 0 0 0 0 0 0 0 0 0 0 0 0 0 0 0 0 0 0 0 0 0 0 0 0 0 0 0 0 0 0 0 0 0 0 0 0 0 0 0 0 0 0 0 0 0 
0 0 0 0 0 0 0 0 0 0 0 0 0 0 0 0 0 0 0 0 0 0 0 0 0 0 0 0 0 0 0 0 0 0 0 0 0 0 0 0 0 0 0 0 0 0 0 0 0 0 0 0 0 0 0 0 0 0 0 0 0 0 0 0 0 0 0 0 0 0 0 0 0 0 0 0 0 0 0 0 0 0 0 0 0 0 0 0 0 0 0 0 0 0 0 0 0 0 0 0 0 0 0 0 0 0 0 0 0 0 0 0 0 0 0 0 0 0 0 0 0 0 0 0 0 0 0 0 0 0 0 0 0 0 0 0 0 0 0 0 0 0 0 0 0 0 0 0 0 0 0 0 0 0 0 0 0 0 0 0 0 0 0 0 0 0 0 0 0 0 0 0 0 0 0 0 0 0 0 0 0 0 0 0 0 0 0 0 0 0 0 0 0 0 0 0 0 0 0 0 0 0 0 0 0 0 0 0 0 0 0 0 0 0 0 0 0 0 0 0 0 0 0 0 0 0 0 0 0 0 0 0 0 0 0 0 0 0 0 0 0 0 0 0 0 0 0 0 0 0 0 0 0 0 0 0 0 0 0 0 0 0 0 0 0 0 0 0 0 0 0 0 0 0 0 0 0 0 0 0 0 0 0 0 0 0 0 0 0 0 0 0 0 0 0 0 0 0 0 0 0 0 0 0 0 0 0 0 0 0 0 0 0 0 0 0 0 0 0 0 0 0 0 0 0 0 0 0 0 0 0 0 0 0 0 0 0 0 0 0 0 0 0 0 0 0 0 0 0 0 0 0 0 0 0 0 0 0 0 0 0 0 0 0 0 0 0 0 0 0 0 0 0 0 0 0 0 0 0 0 0 0 0 0 0 0 0 0 0 0 0 0 0 0 0 0 0 0 0 0 0 0 0 0 0 0 0 0 0 0 0 0 0 0 0 0 0 0 0 0 0 0 0 0 0 0 0 0 0 0 0 0 0 0 0 0 0 0 0 0 0 0 0 0 0 0 0 0 0 0 0 0 0 0 0 0 0 0 0 0 0 0 0 0 0 0 0 0 0 0 0 0 0 0 0 0 0 0 0 0 0 0 0 0 0 0 0 0 0 0 0 0 0 0 0 0 0 0 0 0 0 0 0 0 0 0 0 0 0 0 0 0 0 0 0 0 0 0 0 0 0 0 0 0 0 0 0 0 0 0 0 0 0 0 0 0 0 0 0 0 0 0 0 0 0 0 0 0 0 0 0 0 0 0 0 0 0 0 0 0 0 0 0 0 0 0 0 0 0 0 0 0 0 0 0 0 0 0 0 0 0 0 0 0 0 0 0 0 0 0 0 0 0 0 0 0 0 0 0 0 
0 0 0 0 0 0 0 0 0 0 0 0 0 0 0 0 0 0 0 0 0 0 0 0 0 0 0 0 0 0 0 0 0 0 0 0 0 0 0 0 0 0 0 0 0 0 0 0 0 0 0 0 0 0 0 0 0 0 0 0 0 0 0 0 0 0 0 0 0 -0 -4.2072e-44 -3.47433e-43 -1.15359e-42 -1.38566e-42 5.19114e-42 3.03217e-41 5.9901e-41 -5.7207e-41 -7.23306e-40 -2.05572e-39 -1.09839e-39 1.33668e-38 5.61684e-38 8.85788e-38 -1.41161e-37 -1.2023e-36 -3.12349e-36 -1.67088e-36 1.80197e-35 7.60033e-35 1.33068e-34 -9.06128e-35 -1.28261e-33 -3.8566e-33 -4.49653e-33 1.10283e-32 6.94641e-32 1.68812e-31 1.28286e-31 -6.59297e-31 -3.13302e-30 -6.73191e-30 -3.79182e-30 2.84544e-29 1.22087e-28 2.53216e-28 1.56218e-28 -9.34138e-28 -4.12756e-27 -8.97678e-27 -7.98724e-27 2.16803e-26 1.17561e-25 2.88057e-25 3.71564e-25 -2.12479e-25 -2.60507e-24 -7.80067e-24 -1.36961e-23 -8.72913e-24 3.55364e-23 1.60454e-22 3.75709e-22 5.33317e-22 1.10817e-22 -1.96411e-21 -7.0006e-21 -1.48666e-20 -1.99229e-20 -4.65976e-21 6.49949e-20 2.30948e-19 4.99046e-19 7.34626e-19 4.94224e-19 -1.13275e-18 -5.44245e-18 -1.3349e-17 -2.33322e-17 -2.77108e-17 -7.89547e-18 6.83289e-17 2.40584e-16 5.29543e-16 8.77688e-16 1.05146e-15 5.22893e-16 -1.60337e-15 -6.4804e-15 -1.50115e-14 -2.66918e-14 -3.76289e-14 -3.78831e-14 -8.91064e-15 7.70993e-14 2.52959e-13 5.4317e-13 9.37266e-13 1.3473e-12 1.55191e-12 1.13859e-12 -5.30883e-13 -4.29072e-12 -1.10205e-11 -2.13093e-11 -3.48783e-11 -4.97399e-11 -6.11389e-11 -6.04301e-11 -3.41851e-11 3.60159e-11 1.72505e-10 3.9846e-10 7.32149e-10 1.17794e-09 1.71387e-09 2.27607e-09 2.74109e-09 2.90806e-09 2.48322e-09 1.07047e-09 -1.82819e-09 -6.79822e-09 -1.44801e-08 -2.55158e-08 -4.04715e-08 -5.97361e-08 -8.33931e-08 -1.11068e-07 -1.41748e-07 -1.73572e-07 -2.03582e-07 -2.27435e-07 -2.39037e-07 -2.30104e-07 -1.89592e-07 -1.0298e-07 4.8647e-08 2.89766e-07 6.51858e-07 1.1752e-06 1.91099e-06 2.92395e-06 4.29522e-06 6.12574e-06 8.54006e-06 1.16904e-05 1.57609e-05 2.09727e-05 2.75882e-05 3.59159e-05 4.63152e-05 5.92007e-05 7.50462e-05 9.43876e-05 0.000117827 0.000146031 0.000179738 0.00021975 0.000266935 0.000322226 0.000386611 0.000461131 0.000546871 0.000644948 0.000756507 0.000882702 0.00102469 0.00118359 0.00136053 0.00155656 0.00177266 0.00200976 0.00226867 0.0025501 0.00285461 0.00318265 0.0035345 0.0039103 0.00430999 0.00473336 0.00518 0.00564932 0.00614057 0.00665284 0.00718499 0.0077358 0.00830381 0.00888751 0.00948521 0.0100951 0.0107154 0.0113442 0.0119793 0.0126189 0.0132609 0.0139032 0.0145438 0.0151809 0.0158124 0.0164365 0.0170514 0.0176556 0.0182475 0.0188256 0.0193886 0.0199353 0.0204648 0.0209761 0.0214684 0.0219412 0.0223939 0.0228261 0.0232378 0.0236286 0.0239988 0.0243483 0.0246774 0.0249863 0.0252755 0.0255455 0.0257966 0.0260296 0.0262449 0.0264432 0.0266252 0.0267916 0.0269429 0.0270799 0.0272032 0.0273134 0.0274112 0.0274971 0.0275716 0.0276351 0.0276881 0.027731 0.027764 0.0277875 0.0278014 0.0278061 0.0278014 0.0277875 0.027764 0.027731 0.0276881 0.0276351 0.0275716 0.0274971 0.0274112 0.0273134 0.0272032 0.0270799 0.0269429 0.0267916 0.0266252 0.0264432 0.0262449 0.0260296 0.0257966 0.0255455 0.0252755 0.0249863 0.0246774 0.0243483 0.0239988 0.0236286 0.0232378 0.0228261 0.0223939 0.0219412 0.0214684 0.0209761 0.0204648 0.0199353 0.0193886 0.0188256 0.0182475 0.0176556 0.0170514 0.0164365 0.0158124 0.0151809 0.0145438 0.0139032 0.0132609 0.0126189 0.0119793 0.0113442 0.0107154 0.0100951 0.00948521 0.00888751 0.00830381 0.0077358 0.00718499 0.00665284 0.00614057 0.00564932 0.00518 0.00473336 0.00430999 0.0039103 0.0035345 0.00318265 0.00285461 0.0025501 0.00226867 0.00200976 0.00177266 0.00155656 0.00136053 0.00118359 0.00102469 0.000882702 0.000756507 0.000644948 0.000546871 0.000461131 0.000386611 0.000322226 0.000266935 0.00021975 0.000179738 0.000146031 0.000117827 9.43876e-05 7.50462e-05 5.92007e-05 4.63152e-05 3.59159e-05 2.75882e-05 2.09727e-05 1.57609e-05 1.16904e-05 8.54006e-06 6.12574e-06 4.29522e-06 2.92395e-06 1.91099e-06 1.1752e-06 6.51858e-07 2.89766e-07 4.8647e-08 -1.0298e-07 -1.89592e-07 -2.30104e-07 -2.39037e-07 -2.27435e-07 -2.03582e-07 -1.73572e-07 -1.41748e-07 -1.11068e-07 -8.33931e-08 -5.97361e-08 -4.04715e-08 -2.55158e-08 -1.44801e-08 -6.79822e-09 -1.82819e-09 1.07047e-09 2.48322e-09 2.90806e-09 2.74109e-09 2.27607e-09 1.71387e-09 1.17794e-09 7.32149e-10 3.9846e-10 1.72505e-10 3.60159e-11 -3.41851e-11 -6.04301e-11 -6.11389e-11 -4.97399e-11 -3.48783e-11 -2.13093e-11 -1.10205e-11 -4.29072e-12 -5.30883e-13 1.13859e-12 1.55191e-12 1.3473e-12 9.37266e-13 5.4317e-13 2.52959e-13 7.70993e-14 -8.91064e-15 -3.78831e-14 -3.76289e-14 -2.66918e-14 -1.50115e-14 -6.4804e-15 -1.60337e-15 5.22893e-16 1.05146e-15 8.77688e-16 5.29543e-16 2.40584e-16 6.83289e-17 -7.89547e-18 -2.77108e-17 -2.33322e-17 -1.3349e-17 -5.44245e-18 -1.13275e-18 4.94224e-19 7.34626e-19 4.99046e-19 2.30948e-19 6.49949e-20 -4.65976e-21 -1.99229e-20 -1.48666e-20 -7.0006e-21 -1.96411e-21 1.10817e-22 5.33317e-22 3.75709e-22 1.60454e-22 3.55364e-23 -8.72913e-24 -1.36961e-23 -7.80067e-24 -2.60507e-24 -2.12479e-25 3.71564e-25 2.88057e-25 1.17561e-25 2.16803e-26 -7.98724e-27 -8.97678e-27 -4.12756e-27 -9.34138e-28 1.56218e-28 2.53216e-28 1.22087e-28 2.84544e-29 -3.79182e-30 -6.73191e-30 -3.13302e-30 -6.59297e-31 1.28286e-31 1.68812e-31 6.94641e-32 1.10283e-32 -4.49653e-33 -3.8566e-33 -1.28261e-33 -9.06128e-35 1.33068e-34 7.60033e-35 1.80197e-35 -1.67088e-36 -3.12349e-36 -1.2023e-36 -1.41161e-37 8.85788e-38 5.61684e-38 1.33668e-38 -1.09839e-39 -2.05572e-39 -7.23306e-40 -5.7207e-41 5.9901e-41 3.03217e-41 5.19114e-42 -1.38566e-42 -1.15359e-42 -3.47433e-43 -4.2072e-44 -0 0 0 0 0 0 0 0 0 0 0 0 0 0 0 0 0 0 0 0 0 0 0 0 0 0 0 0 0 0 0 0 0 0 0 0 0 0 0 0 0 0 0 0 0 0 0 0 0 0 0 0 0 0 0 0 0 0 0 0 0 0 0 0 0 0 0 0 0 
0 0 0 0 0 0 0 0 0 0 0 0 0 0 0 0 0 0 0 0 0 0 0 0 0 0 0 0 0 0 0 0 0 0 0 0 0 0 0 0 0 0 0 0 0 0 0 0 0 0 0 0 0 0 0 0 0 0 0 0 0 0 0 0 0 0 0 0 -1.06408e-45 -6.8796e-44 -5.47237e-43 -1.92756e-42 -2.51914e-42 7.84163e-42 4.93236e-41 1.01821e-40 -8.03545e-41 -1.17487e-39 -3.43789e-39 -2.06273e-39 2.17217e-38 9.3564e-38 1.50613e-37 -2.29123e-37 -2.0114e-36 -5.26208e-36 -2.81624e-36 3.05855e-35 1.28845e-34 2.23521e-34 -1.66994e-34 -2.21481e-33 -6.56944e-33 -7.33681e-33 2.02006e-32 1.2129e-31 2.87212e-31 1.9209e-31 -1.22455e-30 -5.52397e-30 -1.14135e-29 -4.86738e-30 5.40978e-29 2.17881e-28 4.29625e-28 1.93212e-28 -1.84861e-27 -7.50617e-27 -1.54057e-26 -1.10933e-26 4.67065e-26 2.20587e-25 5.06862e-25 5.75032e-25 -6.58244e-25 -5.17066e-24 -1.42844e-23 -2.29711e-23 -8.45523e-24 8.11e-23 3.1288e-22 6.76434e-22 8.44288e-22 -2.03653e-22 -4.3926e-21 -1.37131e-20 -2.67293e-20 -3.08595e-20 8.48089e-21 1.52832e-19 4.66105e-19 9.20555e-19 1.1941e-18 3.758e-19 -3.24061e-18 -1.17948e-17 -2.60807e-17 -4.13498e-17 -4.03721e-17 1.41904e-17 1.81164e-16 5.21934e-16 1.04054e-15 1.56296e-15 1.5558e-15 -6.14459e-17 -4.95947e-15 -1.50139e-14 -3.10886e-14 -5.05765e-14 -6.35596e-14 -4.8191e-14 3.27337e-14 2.30088e-13 5.95529e-13 1.14994e-12 1.82658e-12 2.38772e-12 2.32507e-12 7.73954e-13 -3.50259e-12 -1.1975e-11 -2.59461e-11 -4.57779e-11 -6.96697e-11 -9.20019e-11 -1.0141e-10 -7.89854e-11 2.74449e-12 1.79091e-10 4.89569e-10 9.7006e-10 1.63963e-09 2.48126e-09 3.41662e-09 4.27592e-09 4.76573e-09 4.43858e-09 2.67037e-09 -1.34793e-09 -8.5964e-09 -2.01828e-08 -3.72628e-08 -6.09174e-08 -9.19849e-08 -1.30842e-07 -1.77135e-07 -2.2945e-07 -2.84927e-07 -3.38794e-07 -3.83803e-07 -4.09545e-07 -4.01583e-07 -3.40369e-07 -1.99847e-07 5.43079e-08 4.66937e-07 1.09619e-06 2.01698e-06 3.32517e-06 5.14254e-06 7.6226e-06 1.09573e-05 1.53845e-05 2.11962e-05 2.87477e-05 3.8467e-05 5.08645e-05 6.65435e-05 8.62098e-05 0.000110682 0.000140898 0.000177927 0.000222974 0.000277381 0.000342638 0.000420376 0.000512367 0.000620523 0.000746881 0.000893596 0.00106293 0.00125721 0.00147885 0.00173028 0.00201396 0.0023323 0.00268769 0.00308241 0.00351862 0.00399832 0.00452334 0.00509524 0.00571536 0.00638472 0.00710404 0.00787369 0.00869369 0.00956368 0.0104829 0.0114502 0.0124641 0.0135227 0.0146237 0.0157644 0.016942 0.0181532 0.0193943 0.0206617 0.0219514 0.0232591 0.0245807 0.0259118 0.027248 0.0285849 0.0299181 0.0312435 0.0325567 0.0338538 0.035131 0.0363847 0.0376114 0.0388082 0.0399721 0.0411006 0.0421915 0.0432427 0.0442527 0.0452202 0.0461441 0.0470237 0.0478586 0.0486486 0.0493938 0.0500947 0.0507518 0.0513659 0.0519379 0.0524691 0.0529607 0.0534142 0.0538311 0.0542131 0.0545617 0.0548787 0.0551657 0.0554246 0.055657 0.0558646 0.056049 0.0562117 0.0563541 0.0564777 0.0565837 0.0566733 0.0567473 0.0568066 0.056852 0.056884 0.0569031 0.0569094 0.0569031 0.056884 0.056852 0.0568066 0.0567473 0.0566733 0.0565837 0.0564777 0.0563541 0.0562117 0.056049 0.0558646 0.055657 0.0554246 0.0551657 0.0548787 0.0545617 0.0542131 0.0538311 0.0534142 0.0529607 0.0524691 0.0519379 0.0513659 0.0507518 0.0500947 0.0493938 0.0486486 0.0478586 0.0470237 0.0461441 0.0452202 0.0442527 0.0432427 0.0421915 0.0411006 0.0399721 0.0388082 0.0376114 0.0363847 0.035131 0.0338538 0.0325567 0.0312435 0.0299181 0.0285849 0.027248 0.0259118 0.0245807 0.0232591 0.0219514 0.0206617 0.0193943 0.0181532 0.016942 0.0157644 0.0146237 0.0135227 0.0124641 0.0114502 0.0104829 0.00956368 0.00869369 0.00787369 0.00710404 0.00638472 0.00571536 0.00509524 0.00452334 0.00399832 0.00351862 0.00308241 0.00268769 0.0023323 0.00201396 0.00173028 0.00147885 0.00125721 0.00106293 0.000893596 0.000746881 0.000620523 0.000512367 0.000420376 0.000342638 0.000277381 0.000222974 0.000177927 0.000140898 0.000110682 8.62098e-05 6.65435e-05 5.08645e-05 3.8467e-05 2.87477e-05 2.11962e-05 1.53845e-05 1.09573e-05 7.6226e-06 5.14254e-06 3.32517e-06 2.01698e-06 1.09619e-06 4.66937e-07 5.43079e-08 -1.99847e-07 -3.40369e-07 -4.01583e-07 -4.09545e-07 -3.83803e-07 -3.38794e-07 -2.84927e-07 -2.2945e-07 -1.77135e-07 -1.30842e-07 -9.19849e-08 -6.09174e-08 -3.72628e-08 -2.01828e-08 -8.5964e-09 -1.34793e-09 2.67037e-09 4.43858e-09 4.76573e-09 4.27592e-09 3.41662e-09 2.48126e-09 1.63963e-09 9.7006e-10 4.89569e-10 1.79091e-10 2.74449e-12 -7.89854e-11 -1.0141e-10 -9.20019e-11 -6.96697e-11 -4.57779e-11 -2.59461e-11 -1.1975e-11 -3.50259e-12 7.73954e-13 2.32507e-12 2.38772e-12 1.82658e-12 1.14994e-12 5.95529e-13 2.30088e-13 3.27337e-14 -4.8191e-14 -6.35596e-14 -5.05765e-14 -3.10886e-14 -1.50139e-14 -4.95947e-15 -6.14459e-17 1.5558e-15 1.56296e-15 1.04054e-15 5.21934e-16 1.81164e-16 1.41904e-17 -4.03721e-17 -4.13498e-17 -2.60807e-17 -1.17948e-17 -3.24061e-18 3.758e-19 1.1941e-18 9.20555e-19 4.66105e-19 1.52832e-19 8.48089e-21 -3.08595e-20 -2.67293e-20 -1.37131e-20 -4.3926e-21 -2.03653e-22 8.44288e-22 6.76434e-22 3.1288e-22 8.11e-23 -8.45523e-24 -2.29711e-23 -1.42844e-23 -5.17066e-24 -6.58244e-25 5.75032e-25 5.06862e-25 2.20587e-25 4.67065e-26 -1.10933e-26 -1.54057e-26 -7.50617e-27 -1.84861e-27 1.93212e-28 4.29625e-28 2.17881e-28 5.40978e-29 -4.86738e-30 -1.14135e-29 -5.52397e-30 -1.22455e-30 1.9209e-31 2.87212e-31 1.2129e-31 2.02006e-32 -7.33681e-33 -6.56944e-33 -2.21481e-33 -1.66994e-34 2.23521e-34 1.28845e-34 3.05855e-35 -2.81624e-36 -5.26208e-36 -2.0114e-36 -2.29123e-37 1.50613e-37 9.3564e-38 2.17217e-38 -2.06273e-39 -3.43789e-39 -1.17487e-39 -8.03545e-41 1.01821e-40 4.93236e-41 7.84163e-42 -2.51914e-42 -1.92756e-42 -5.47237e-43 -6.8796e-44 -1.06408e-45 0 0 0 0 0 0 0 0 0 0 0 0 0 0 0 0 0 0 0 0 0 0 0 0 0 0 0 0 0 0 0 0 0 0 0 0 0 0 0 0 0 0 0 0 0 0 0 0 0 0 0 0 0 0 0 0 0 0 0 0 0 0 0 0 0 0 0 
0 0 0 0 0 0 0 0 0 0 0 0 0 0 0 0 0 0 0 0 0 0 0 0 0 0 0 0 0 0 0 0 0 0 0 0 0 0 0 0 0 0 0 0 0 0 0 0 0 0 0 0 0 0 0 0 0 0 0 0 0 0 0 0 0 0 0 0 -1.77373e-44 -4.13415e-43 -2.18441e-42 -5.0483e-42 1.24297e-42 4.90326e-41 1.59311e-40 1.19817e-40 -9.84942e-40 -4.4999e-39 -7.32731e-39 1.24724e-38 1.0517e-37 2.65929e-37 7.43955e-38 -1.88263e-36 -7.19778e-36 -1.04696e-35 1.90474e-35 1.46835e-34 3.71081e-34 2.07838e-34 -1.99554e-33 -8.49176e-33 -1.54717e-32 5.6663e-33 1.27201e-31 4.05558e-31 5.57502e-31 -7.52437e-31 -6.27606e-30 -1.69909e-29 -1.91513e-29 4.00144e-29 2.57205e-28 6.4805e-28 7.01546e-28 -1.40129e-27 -8.91818e-27 -2.27206e-26 -2.79165e-26 3.02149e-26 2.56255e-25 7.14964e-25 1.08651e-24 -2.07827e-26 -5.64558e-24 -1.90748e-23 -3.66085e-23 -3.05519e-23 7.30271e-23 3.90407e-22 9.70696e-22 1.46208e-21 5.08512e-22 -4.78764e-21 -1.81165e-20 -3.9453e-20 -5.38173e-20 -1.34145e-20 1.75619e-19 6.28121e-19 1.35388e-18 1.95887e-18 1.17072e-18 -3.58104e-18 -1.58345e-17 -3.76964e-17 -6.36807e-17 -6.98953e-17 -1.11888e-18 2.3421e-16 7.39552e-16 1.54324e-15 2.41463e-15 2.57773e-15 3.98349e-16 -6.72516e-15 -2.18237e-14 -4.65232e-14 -7.72373e-14 -9.91167e-14 -7.86605e-14 4.19195e-14 3.42319e-13 9.0399e-13 1.76018e-12 2.80568e-12 3.66447e-12 3.5329e-12 1.04799e-12 -5.72721e-12 -1.90629e-11 -4.08942e-11 -7.15546e-11 -1.07803e-10 -1.40192e-10 -1.50089e-10 -1.07026e-10 3.24902e-11 3.2315e-10 8.24102e-10 1.58532e-09 2.62543e-09 3.90021e-09 5.26225e-09 6.41457e-09 6.86272e-09 5.87313e-09 2.44694e-09 -4.67958e-09 -1.69961e-08 -3.61302e-08 -6.37002e-08 -1.01103e-07 -1.49231e-07 -2.0812e-07 -2.76517e-07 -3.51378e-07 -4.27264e-07 -4.9563e-07 -5.43964e-07 -5.54711e-07 -5.03916e-07 -3.59482e-07 -7.89219e-08 3.93526e-07 1.13056e-06 2.22643e-06 3.80252e-06 6.01426e-06 9.0591e-06 1.31859e-05 1.87056e-05 2.6003e-05 3.55498e-05 4.79184e-05 6.37964e-05 8.40014e-05 0.000109496 0.000141402 0.000181014 0.000229813 0.000289473 0.000361874 0.0004491 0.00055345 0.000677427 0.000823735 0.000995267 0.00119509 0.00142642 0.00169259 0.00199705 0.00234327 0.00273476 0.00317498 0.00366734 0.00421507 0.00482124 0.00548869 0.00621996 0.00701722 0.00788228 0.00881647 0.00982067 0.0108952 0.0120399 0.013254 0.0145362 0.0158844 0.0172962 0.0187685 0.0202976 0.0218794 0.0235092 0.0251819 0.026892 0.0286336 0.0304006 0.0321867 0.0339854 0.0357901 0.0375941 0.0393908 0.041174 0.0429371 0.0446741 0.0463794 0.0480473 0.0496726 0.0512507 0.0527775 0.0542489 0.0556618 0.0570132 0.0583008 0.0595228 0.0606778 0.0617648 0.0627838 0.0637345 0.0646175 0.0654339 0.0661847 0.0668717 0.067497 0.0680627 0.0685713 0.0690256 0.0694285 0.0697829 0.0700923 0.0703598 0.0705886 0.0707822 0.0709439 0.0710768 0.0711841 0.071269 0.0713344 0.0713833 0.0714185 0.071442 0.0714567 0.0714645 0.0714674 0.0714668 0.0714645 0.0714612 0.0714584 0.0714564 0.0714557 0.0714564 0.0714584 0.0714612 0.0714645 0.0714668 0.0714674 0.0714645 0.0714567 0.071442 0.0714185 0.0713833 0.0713344 0.071269 0.0711841 0.0710768 0.0709439 0.0707822 0.0705886 0.0703598 0.0700923 0.0697829 0.0694285 0.0690256 0.0685713 0.0680627 0.067497 0.0668717 0.0661847 0.0654339 0.0646175 0.0637345 0.0627838 0.0617648 0.0606778 0.0595228 0.0583008 0.0570132 0.0556618 0.0542489 0.0527775 0.0512507 0.0496726 0.0480473 0.0463794 0.0446741 0.0429371 0.041174 0.0393908 0.0375941 0.0357901 0.0339854 0.0321867 0.0304006 0.0286336 0.026892 0.0251819 0.0235092 0.0218794 0.0202976 0.0187685 0.0172962 0.0158844 0.0145362 0.013254 0.0120399 0.0108952 0.00982067 0.00881647 0.00788228 0.00701722 0.00621996 0.00548869 0.00482124 0.00421507 0.00366734 0.00317498 0.00273476 0.00234327 0.00199705 0.00169259 0.00142642 0.00119509 0.000995267 0.000823735 0.000677427 0.00055345 0.0004491 0.000361874 0.000289473 0.000229813 0.000181014 0.000141402 0.000109496 8.40014e-05 6.37964e-05 4.79184e-05 3.55498e-05 2.6003e-05 1.87056e-05 1.31859e-05 9.0591e-06 6.01426e-06 3.80252e-06 2.22643e-06 1.13056e-06 3.93526e-07 -7.89219e-08 -3.59482e-07 -5.03916e-07 -5.54711e-07 -5.43964e-07 -4.9563e-07 -4.27264e-07 -3.51378e-07 -2.76517e-07 -2.0812e-07 -1.49231e-07 -1.01103e-07 -6.37002e-08 -3.61302e-08 -1.69961e-08 -4.67958e-09 2.44694e-09 5.87313e-09 6.86272e-09 6.41457e-09 5.26225e-09 3.90021e-09 2.62543e-09 1.58532e-09 8.24102e-10 3.2315e-10 3.24902e-11 -1.07026e-10 -1.50089e-10 -1.40192e-10 -1.07803e-10 -7.15546e-11 -4.08942e-11 -1.90629e-11 -5.72721e-12 1.04799e-12 3.5329e-12 3.66447e-12 2.80568e-12 1.76018e-12 9.0399e-13 3.42319e-13 4.19195e-14 -7.86605e-14 -9.91167e-14 -7.72373e-14 -4.65232e-14 -2.18237e-14 -6.72516e-15 3.98349e-16 2.57773e-15 2.41463e-15 1.54324e-15 7.39552e-16 2.3421e-16 -1.11888e-18 -6.98953e-17 -6.36807e-17 -3.76964e-17 -1.58345e-17 -3.58104e-18 1.17072e-18 1.95887e-18 1.35388e-18 6.28121e-19 1.75619e-19 -1.34145e-20 -5.38173e-20 -3.9453e-20 -1.81165e-20 -4.78764e-21 5.08512e-22 1.46208e-21 9.70696e-22 3.90407e-22 7.30271e-23 -3.05519e-23 -3.66085e-23 -1.90748e-23 -5.64558e-24 -2.07827e-26 1.08651e-24 7.14964e-25 2.56255e-25 3.02149e-26 -2.79165e-26 -2.27206e-26 -8.91818e-27 -1.40129e-27 7.01546e-28 6.4805e-28 2.57205e-28 4.00144e-29 -1.91513e-29 -1.69909e-29 -6.27606e-30 -7.52437e-31 5.57502e-31 4.05558e-31 1.27201e-31 5.6663e-33 -1.54717e-32 -8.49176e-33 -1.99554e-33 2.07838e-34 3.71081e-34 1.46835e-34 1.90474e-35 -1.04696e-35 -7.19778e-36 -1.88263e-36 7.43955e-38 2.65929e-37 1.0517e-37 1.24724e-38 -7.32731e-39 -4.4999e-39 -9.84942e-40 1.19817e-40 1.59311e-40 4.90326e-41 1.24297e-42 -5.0483e-42 -2.18441e-42 -4.13415e-43 -1.77373e-44 0 0 0 0 0 0 0 0 0 0 0 0 0 0 0 0 0 0 0 0 0 0 0 0 0 0 0 0 0 0 0 0 0 0 0 0 0 0 0 0 0 0 0 0 0 0 0 0 0 0 0 0 0 0 0 0 0 0 0 0 0 0 0 0 0 0 0 
0 0 0 0 0 0 0 0 0 0 0 0 0 0 0 0 0 0 0 0 0 0 0 0 0 0 0 0 0 0 0 0 0 0 0 0 0 0 0 0 0 0 0 0 0 0 0 0 0 0 0 0 0 0 0 0 0 0 0 0 0 0 0 0 0 0 0 -4.24016e-44 -6.62012e-43 -3.06933e-42 -5.97179e-42 5.94854e-42 7.40168e-41 2.03339e-40 4.6282e-41 -1.64265e-39 -6.16588e-39 -7.41211e-39 2.66733e-38 1.5605e-37 3.25156e-37 -1.42475e-37 -3.13799e-36 -9.86193e-36 -9.77227e-36 4.26662e-35 2.2473e-34 4.6337e-34 -6.05028e-35 -3.63564e-33 -1.22822e-32 -1.6831e-32 2.82089e-32 2.16183e-31 5.60491e-31 4.87346e-31 -2.05337e-30 -1.03692e-29 -2.2738e-29 -1.26185e-29 9.97372e-29 4.24584e-28 8.60392e-28 4.15504e-28 -3.67885e-27 -1.51341e-26 -3.09632e-26 -2.06628e-26 1.0206e-25 4.63874e-25 1.0359e-24 1.06809e-24 -1.79176e-24 -1.16179e-23 -3.03741e-23 -4.48934e-23 -2.42307e-24 2.0917e-22 7.15879e-22 1.42446e-21 1.47254e-21 -1.53825e-21 -1.16929e-20 -3.21054e-20 -5.59242e-20 -4.85068e-20 7.36303e-20 4.40786e-19 1.1452e-18 1.98558e-18 1.98413e-18 -1.1945e-18 -1.1346e-17 -3.20606e-17 -6.13256e-17 -8.06954e-17 -4.01312e-17 1.53096e-16 6.20352e-16 1.43612e-15 2.4473e-15 2.96459e-15 1.38269e-15 -5.0493e-15 -1.98346e-14 -4.54697e-14 -7.94618e-14 -1.07623e-13 -9.53698e-14 1.97527e-14 3.27328e-13 9.23677e-13 1.8571e-12 3.02508e-12 4.0195e-12 3.93875e-12 1.22481e-12 -6.36318e-12 -2.14685e-11 -4.63342e-11 -8.12611e-11 -1.22192e-10 -1.57483e-10 -1.64266e-10 -1.05297e-10 7.22541e-11 4.34018e-10 1.0492e-09 1.97238e-09 3.21429e-09 4.70068e-09 6.22051e-09 7.36698e-09 7.47871e-09 5.59097e-09 4.10228e-10 -9.67314e-09 -2.65183e-08 -5.20994e-08 -8.82903e-08 -1.36561e-07 -1.97578e-07 -2.70707e-07 -3.53413e-07 -4.40538e-07 -5.23445e-07 -5.88983e-07 -6.18202e-07 -5.84729e-07 -4.52696e-07 -1.74038e-07 3.14986e-07 1.09827e-06 2.28552e-06 4.01934e-06 6.48381e-06 9.91491e-06 1.46126e-05 2.09549e-05 2.94136e-05 4.05719e-05 5.5143e-05 7.39907e-05 9.815e-05 0.000128848 0.000167525 0.000215856 0.000275765 0.000349445 0.000439372 0.000548307 0.000679311 0.000835732 0.00102121 0.00123964 0.0014952 0.00179226 0.00213538 0.00252927 0.00297872 0.00348856 0.00406355 0.00470839 0.00542755 0.00622529 0.00710546 0.00807153 0.00912648 0.0102727 0.0115119 0.0128451 0.0142726 0.0157939 0.0174076 0.0191115 0.0209025 0.0227766 0.024729 0.0267542 0.0288457 0.0309964 0.0331987 0.0354442 0.0377241 0.0400294 0.0423505 0.0446777 0.0470014 0.0493115 0.0515987 0.0538535 0.0560667 0.0582296 0.0603338 0.0623716 0.064336 0.0662204 0.0680189 0.0697266 0.0713392 0.0728531 0.0742656 0.0755748 0.0767796 0.0778796 0.0788749 0.0797668 0.0805569 0.0812474 0.0818413 0.0823419 0.0827536 0.0830801 0.0833264 0.0834975 0.0835987 0.0836355 0.0836135 0.0835388 0.0834167 0.0832535 0.083055 0.0828268 0.0825749 0.0823046 0.0820213 0.0817303 0.0814362 0.0811442 0.0808585 0.0805833 0.0803223 0.0800792 0.0798571 0.0796588 0.0794869 0.0793433 0.0792297 0.0791477 0.0790981 0.0790816 0.0790981 0.0791477 0.0792297 0.0793433 0.0794869 0.0796588 0.0798571 0.0800792 0.0803223 0.0805833 0.0808585 0.0811442 0.0814362 0.0817303 0.0820213 0.0823046 0.0825749 0.0828268 0.083055 0.0832535 0.0834167 0.0835388 0.0836135 0.0836355 0.0835987 0.0834975 0.0833264 0.0830801 0.0827536 0.0823419 0.0818413 0.0812474 0.0805569 0.0797668 0.0788749 0.0778796 0.0767796 0.0755748 0.0742656 0.0728531 0.0713392 0.0697266 0.0680189 0.0662204 0.064336 0.0623716 0.0603338 0.0582296 0.0560667 0.0538535 0.0515987 0.0493115 0.0470014 0.0446777 0.0423505 0.0400294 0.0377241 0.0354442 0.0331987 0.0309964 0.0288457 0.0267542 0.024729 0.0227766 0.0209025 0.0191115 0.0174076 0.0157939 0.0142726 0.0128451 0.0115119 0.0102727 0.00912648 0.00807153 0.00710546 0.00622529 0.00542755 0.00470839 0.00406355 0.00348856 0.00297872 0.00252927 0.00213538 0.00179226 0.0014952 0.00123964 0.00102121 0.000835732 0.000679311 0.000548307 0.000439372 0.000349445 0.000275765 0.000215856 0.000167525 0.000128848 9.815e-05 7.39907e-05 5.5143e-05 4.05719e-05 2.94136e-05 2.09549e-05 1.46126e-05 9.91491e-06 6.48381e-06 4.01934e-06 2.28552e-06 1.09827e-06 3.14986e-07 -1.74038e-07 -4.52696e-07 -5.84729e-07 -6.18202e-07 -5.88983e-07 -5.23445e-07 -4.40538e-07 -3.53413e-07 -2.70707e-07 -1.97578e-07 -1.36561e-07 -8.82903e-08 -5.20994e-08 -2.65183e-08 -9.67314e-09 4.10228e-10 5.59097e-09 7.47871e-09 7.36698e-09 6.22051e-09 4.70068e-09 3.21429e-09 1.97238e-09 1.0492e-09 4.34018e-10 7.22541e-11 -1.05297e-10 -1.64266e-10 -1.57483e-10 -1.22192e-10 -8.12611e-11 -4.63342e-11 -2.14685e-11 -6.36318e-12 1.22481e-12 3.93875e-12 4.0195e-12 3.02508e-12 1.8571e-12 9.23677e-13 3.27328e-13 1.97527e-14 -9.53698e-14 -1.07623e-13 -7.94618e-14 -4.54697e-14 -1.98346e-14 -5.0493e-15 1.38269e-15 2.96459e-15 2.4473e-15 1.43612e-15 6.20352e-16 1.53096e-16 -4.01312e-17 -8.06954e-17 -6.13256e-17 -3.20606e-17 -1.1346e-17 -1.1945e-18 1.98413e-18 1.98558e-18 1.1452e-18 4.40786e-19 7.36303e-20 -4.85068e-20 -5.59242e-20 -3.21054e-20 -1.16929e-20 -1.53825e-21 1.47254e-21 1.42446e-21 7.15879e-22 2.0917e-22 -2.42307e-24 -4.48934e-23 -3.03741e-23 -1.16179e-23 -1.79176e-24 1.06809e-24 1.0359e-24 4.63874e-25 1.0206e-25 -2.06628e-26 -3.09632e-26 -1.51341e-26 -3.67885e-27 4.15504e-28 8.60392e-28 4.24584e-28 9.97372e-29 -1.26185e-29 -2.2738e-29 -1.03692e-29 -2.05337e-30 4.87346e-31 5.60491e-31 2.16183e-31 2.82089e-32 -1.6831e-32 -1.22822e-32 -3.63564e-33 -6.05028e-35 4.6337e-34 2.2473e-34 4.26662e-35 -9.77227e-36 -9.86193e-36 -3.13799e-36 -1.42475e-37 3.25156e-37 1.5605e-37 2.66733e-38 -7.41211e-39 -6.16588e-39 -1.64265e-39 4.6282e-41 2.03339e-40 7.40168e-41 5.94854e-42 -5.97179e-42 -3.06933e-42 -6.62012e-43 -4.24016e-44 0 0 0 0 0 0 0 0 0 0 0 0 0 0 0 0 0 0 0 0 0 0 0 0 0 0 0 0 0 0 0 0 0 0 0 0 0 0 0 0 0 0 0 0 0 0 0 0 0 0 0 0 0 0 0 0 0 0 0 0 0 0 0 0 0 0 