<?xml version="1.0"?>
<VTKFile type="ImageData" version="0.1" byte_order="LittleEndian">
<ImageData WholeExtent="0 599 0 599 0 0" Origin="0 0 0" Spacing="5 5 0">
<Piece Extent="0 599 0 599 0 0">
<PointData Scalars="Amplitude">
<DataArray type="Float32" Name="Amplitude" format="ascii">
0 0 0 0 0 0 0 0 0 0 0 0 0 0 0 0 0 0 0 0 0 0 0 0 0 0 0 0 0 0 0 0 0 0 0 0 0 0 0 0 0 0 0 0 0 0 0 0 0 0 0 0 0 0 0 0 0 0 0 0 0 0 0 0 0 0 0 0 0 0 0 0 0 0 0 0 0 0 0 0 0 0 0 0 0 0 0 0 0 0 0 0 0 0 0 0 0 0 0 0 0 0 0 0 0 0 0 0 0 0 0 0 0 0 0 0 0 0 0 0 0 0 0 0 0 0 0 0 0 0 0 0 0 0 0 0 0 0 0 0 0 0 0 0 0 0 0 0 0 0 0 0 0 0 0 0 0 0 0 0 0 0 0 0 0 0 0 0 0 0 0 0 0 0 0 0 0 0 0 0 0 0 0 0 0 0 0 0 0 0 0 0 0 0 0 0 0 0 0 0 0 0 0 0 0 0 0 0 0 0 0 0 0 0 0 0 0 0 0 0 0 0 0 0 0 0 0 0 0 0 0 0 0 0 0 0 0 0 0 0 0 0 0 0 0 0 0 0 0 0 0 0 0 0 0 0 0 0 0 0 0 0 0 0 0 0 0 0 0 0 0 0 0 0 0 0 0 0 0 0 0 0 0 0 0 0 0 0 0 0 0 0 0 0 0 0 0 0 0 0 0 0 0 0 0 0 0 0 0 0 0 0 0 0 0 0 0 0 0 0 0 0 0 0 0 0 0 0 0 0 0 0 0 0 0 0 0 0 0 0 0 0 0 0 0 0 0 0 0 0 0 0 0 0 0 0 0 0 0 0 0 0 0 0 0 0 0 0 0 0 0 0 0 0 0 0 0 0 0 0 0 0 0 0 0 0 0 0 0 0 0 0 0 0 0 0 0 0 0 0 0 0 0 0 0 0 0 0 0 0 0 0 0 0 0 0 0 0 0 0 0 0 0 0 0 0 0 0 0 0 0 0 0 0 0 0 0 0 0 0 0 0 0 0 0 0 0 0 0 0 0 0 0 0 0 0 0 0 0 0 0 0 0 0 0 0 0 0 0 0 0 0 0 0 0 0 0 0 0 0 0 0 0 0 0 0 0 0 0 0 0 0 0 0 0 0 0 0 0 0 0 0 0 0 0 0 0 0 0 0 0 0 0 0 0 0 0 0 0 0 0 0 0 0 0 0 0 0 0 0 0 0 0 0 0 0 0 0 0 0 0 0 0 0 0 0 0 0 0 0 0 0 0 0 0 0 0 0 0 0 0 0 0 0 0 0 0 0 0 0 0 0 0 0 0 0 0 0 0 0 0 0 0 0 0 0 0 0 0 0 0 0 0 0 0 0 0 0 0 0 
0 0 0 0 0 0 0 0 0 0 0 0 0 0 0 0 0 0 0 0 0 0 0 0 0 0 0 0 0 0 0 0 0 0 0 0 0 0 0 0 0 0 0 0 0 0 0 0 0 0 0 0 0 0 0 0 0 0 0 0 0 0 0 0 0 0 0 0 0 0 0 0 0 0 0 0 0 0 0 0 0 0 0 0 0 0 0 0 0 0 0 0 0 0 0 0 0 0 0 0 0 0 0 0 0 0 0 0 0 0 0 0 0 0 0 0 0 0 0 0 0 0 0 0 0 0 0 0 0 0 0 0 0 0 0 0 0 0 0 0 0 0 0 0 0 0 0 0 0 0 0 0 0 0 0 0 0 0 0 0 0 0 0 0 0 0 0 0 0 0 0 0 0 0 0 0 0 0 0 0 0 0 0 0 0 0 0 0 0 0 0 0 0 0 0 0 0 0 0 0 0 0 0 0 0 0 0 0 0 0 0 0 0 0 0 0 0 0 0 0 0 0 0 0 0 0 0 0 0 0 0 0 0 0 0 0 0 0 0 0 0 0 0 0 0 0 0 0 0 0 0 0 0 0 0 0 0 0 0 0 0 0 0 0 0 0 0 0 0 0 0 0 0 0 0 0 0 0 0 0 0 0 0 0 0 0 0 0 0 0 0 0 0 0 0 0 0 0 0 0 0 0 0 0 0 0 0 0 0 0 0 0 0 0 0 0 0 0 0 0 0 0 0 0 0 0 0 0 0 0 0 0 0 0 0 0 0 0 0 0 0 0 0 0 0 0 0 0 0 0 0 0 0 0 0 0 0 0 0 0 0 0 0 0 0 0 0 0 0 0 0 0 0 0 0 0 0 0 0 0 0 0 0 0 0 0 0 0 0 0 0 0 0 0 0 0 0 0 0 0 0 0 0 0 0 0 0 0 0 0 0 0 0 0 0 0 0 0 0 0 0 0 0 0 0 0 0 0 0 0 0 0 0 0 0 0 0 0 0 0 0 0 0 0 0 0 0 0 0 0 0 0 0 0 0 0 0 0 0 0 0 0 0 0 0 0 0 0 0 0 0 0 0 0 0 0 0 0 0 0 0 0 0 0 0 0 0 0 0 0 0 0 0 0 0 0 0 0 0 0 0 0 0 0 0 0 0 0 0 0 0 0 0 0 0 0 0 0 0 0 0 0 0 0 0 0 0 0 0 0 0 0 0 0 0 0 0 0 0 0 0 0 0 0 0 0 0 0 0 0 0 0 0 0 0 0 0 0 0 0 0 0 0 0 0 0 0 0 0 0 0 0 0 0 0 0 0 0 0 0 0 0 0 0 0 0 0 0 0 0 0 0 0 0 0 0 0 0 0 0 
0 0 0.000188326 0.000428565 0.000718179 0.00110072 0.00158379 0.00214582 0.00272776 0.0032259 0.00349163 0.00334183 0.00258144 0.00103676 -0.00140602 -0.00476484 -0.00893743 -0.0136958 -0.0187034 -0.023553 -0.0278193 -0.0311163 -0.0331488 -0.0337482 -0.0328894 -0.0306859 -0.0273701 -0.0232432 -0.018628 -0.0138418 -0.00917106 -0.00485059 -0.00105186 0.00212062 0.00462546 0.00647514 0.00772307 0.00844941 0.0087479 0.0087148 0.00844074 0.00800539 0.00747456 0.00689934 0.00631707 0.00575317 0.00522343 0.00473639 0.00429504 0.00389904 0.00354584 0.00323169 0.00295241 0.00270388 0.00248223 0.00228376 0.0021054 0.00194448 0.00179876 0.00166613 0.00154501 0.00143419 0.0013326 0.00123907 0.00115265 0.00107266 0.000998518 0.000929756 0.000865953 0.000806664 0.000751392 0.000699787 0.000651647 0.000606823 0.000565004 0.000525827 0.000489144 0.000454826 0.000422855 0.000393023 0.000365059 0.000338788 0.000314167 0.000291199 0.000269787 0.000249793 0.000231 0.000213334 0.000196818 0.000181421 0.000167084 0.000153643 0.000140949 0.00012911 0.000118044 0.000107613 9.78225e-05 8.86726e-05 8.00446e-05 7.19521e-05 6.44584e-05 5.74777e-05 5.08792e-05 4.46774e-05 3.88386e-05 3.32989e-05 2.81231e-05 2.3332e-05 1.88835e-05 1.46898e-05 1.07022e-05 6.95453e-06 3.46075e-06 1.61101e-07 -2.95424e-06 -5.86149e-06 -8.58793e-06 -1.11242e-05 -1.33955e-05 -1.55742e-05 -1.76531e-05 -1.96148e-05 -2.14727e-05 -2.32079e-05 -2.47947e-05 -2.62849e-05 -2.76677e-05 -2.89327e-05 -3.00417e-05 -3.10935e-05 -3.2053e-05 -3.29825e-05 -3.39121e-05 -3.48101e-05 -3.56035e-05 -3.62378e-05 -3.67878e-05 -3.72378e-05 -3.77342e-05 -3.82356e-05 -3.8773e-05 -3.92457e-05 -3.95809e-05 -3.98328e-05 -4.00299e-05 -4.01925e-05 -4.03874e-05 -4.06447e-05 -4.09516e-05 -4.12235e-05 -4.14308e-05 -4.15394e-05 -4.15584e-05 -4.15606e-05 -4.15543e-05 -4.15175e-05 -4.15175e-05 -4.15112e-05 -4.14984e-05 -4.14682e-05 -4.13947e-05 -4.13496e-05 -4.12332e-05 -4.1143e-05 -4.10357e-05 -4.09563e-05 -4.08503e-05 -4.07512e-05 -4.06057e-05 -4.04278e-05 -4.03065e-05 -4.01913e-05 -4.00474e-05 -3.9839e-05 -3.96344e-05 -3.94657e-05 -3.9284e-05 -3.91271e-05 -3.89911e-05 -3.88264e-05 -3.8625e-05 -3.84208e-05 -3.82252e-05 -3.79874e-05 -3.77461e-05 -3.75487e-05 -3.73865e-05 -3.71763e-05 -3.69894e-05 -3.68342e-05 -3.6637e-05 -3.64115e-05 -3.62005e-05 -3.60263e-05 -3.58476e-05 -3.56158e-05 -3.5421e-05 -3.51837e-05 -3.49926e-05 -3.4814e-05 -3.46313e-05 -3.44249e-05 -3.4279e-05 -3.41565e-05 -3.40028e-05 -3.37709e-05 -3.35299e-05 -3.33677e-05 -3.32715e-05 -3.31194e-05 -3.2922e-05 -3.27122e-05 -3.25814e-05 -3.24254e-05 -3.22288e-05 -3.20598e-05 -3.1924e-05 -3.1787e-05 -3.16499e-05 -3.13994e-05 -3.11528e-05 -3.09732e-05 -3.08093e-05 -3.07221e-05 -3.06706e-05 -3.0596e-05 -3.05213e-05 -3.04079e-05 -3.02599e-05 -3.00734e-05 -2.98291e-05 -2.95934e-05 -2.94383e-05 -2.93009e-05 -2.92063e-05 -2.91032e-05 -2.90495e-05 -2.90033e-05 -2.89325e-05 -2.88174e-05 -2.87283e-05 -2.86463e-05 -2.84963e-05 -2.83359e-05 -2.82126e-05 -2.80844e-05 -2.79477e-05 -2.78354e-05 -2.76925e-05 -2.75114e-05 -2.73552e-05 -2.72229e-05 -2.71715e-05 -2.71144e-05 -2.70318e-05 -2.69122e-05 -2.68221e-05 -2.67265e-05 -2.6695e-05 -2.67171e-05 -2.67676e-05 -2.67702e-05 -2.66919e-05 -2.65844e-05 -2.64285e-05 -2.63302e-05 -2.62111e-05 -2.61499e-05 -2.60668e-05 -2.59884e-05 -2.59468e-05 -2.59298e-05 -2.59023e-05 -2.5843e-05 -2.57921e-05 -2.57476e-05 -2.56976e-05 -2.56649e-05 -2.56333e-05 -2.5565e-05 -2.55118e-05 -2.54794e-05 -2.54456e-05 -2.54013e-05 -2.53424e-05 -2.5339e-05 -2.53257e-05 -2.52975e-05 -2.52234e-05 -2.51544e-05 -2.51526e-05 -2.51748e-05 -2.51818e-05 -2.51778e-05 -2.51356e-05 -2.51229e-05 -2.51218e-05 -2.50715e-05 -2.50503e-05 -2.50754e-05 -2.50613e-05 -2.50754e-05 -2.50503e-05 -2.50715e-05 -2.51218e-05 -2.51229e-05 -2.51356e-05 -2.51778e-05 -2.51818e-05 -2.51748e-05 -2.51526e-05 -2.51544e-05 -2.52234e-05 -2.52975e-05 -2.53257e-05 -2.5339e-05 -2.53424e-05 -2.54013e-05 -2.54456e-05 -2.54794e-05 -2.55118e-05 -2.5565e-05 -2.56333e-05 -2.56649e-05 -2.56976e-05 -2.57476e-05 -2.57921e-05 -2.5843e-05 -2.59023e-05 -2.59298e-05 -2.59468e-05 -2.59884e-05 -2.60668e-05 -2.61499e-05 -2.62111e-05 -2.63302e-05 -2.64285e-05 -2.65844e-05 -2.66919e-05 -2.67702e-05 -2.67676e-05 -2.67171e-05 -2.6695e-05 -2.67265e-05 -2.68221e-05 -2.69122e-05 -2.70318e-05 -2.71144e-05 -2.71715e-05 -2.72229e-05 -2.73552e-05 -2.75114e-05 -2.76925e-05 -2.78354e-05 -2.79477e-05 -2.80844e-05 -2.82126e-05 -2.83359e-05 -2.84963e-05 -2.86463e-05 -2.87283e-05 -2.88174e-05 -2.89325e-05 -2.90033e-05 -2.90495e-05 -2.91032e-05 -2.92063e-05 -2.93009e-05 -2.94383e-05 -2.95934e-05 -2.98291e-05 -3.00734e-05 -3.02599e-05 -3.04079e-05 -3.05213e-05 -3.0596e-05 -3.06706e-05 -3.07221e-05 -3.08093e-05 -3.09732e-05 -3.11528e-05 -3.13994e-05 -3.16499e-05 -3.1787e-05 -3.1924e-05 -3.20598e-05 -3.22288e-05 -3.24254e-05 -3.25814e-05 -3.27122e-05 -3.2922e-05 -3.31194e-05 -3.32715e-05 -3.33677e-05 -3.35299e-05 -3.37709e-05 -3.40028e-05 -3.41565e-05 -3.4279e-05 -3.44249e-05 -3.46313e-05 -3.4814e-05 -3.49926e-05 -3.51837e-05 -3.5421e-05 -3.56158e-05 -3.58476e-05 -3.60263e-05 -3.62005e-05 -3.64115e-05 -3.6637e-05 -3.68342e-05 -3.69894e-05 -3.71763e-05 -3.73865e-05 -3.75487e-05 -3.77461e-05 -3.79874e-05 -3.82252e-05 -3.84208e-05 -3.8625e-05 -3.88264e-05 -3.89911e-05 -3.91271e-05 -3.9284e-05 -3.94657e-05 -3.96344e-05 -3.9839e-05 -4.00474e-05 -4.01913e-05 -4.03065e-05 -4.04278e-05 -4.06057e-05 -4.07512e-05 -4.08503e-05 -4.09563e-05 -4.10357e-05 -4.1143e-05 -4.12332e-05 -4.13496e-05 -4.13946e-05 -4.14682e-05 -4.14984e-05 -4.15112e-05 -4.15176e-05 -4.15176e-05 -4.15543e-05 -4.15606e-05 -4.15584e-05 -4.15393e-05 -4.14307e-05 -4.12234e-05 -4.09516e-05 -4.06447e-05 -4.03874e-05 -4.01923e-05 -4.00293e-05 -3.98323e-05 -3.95802e-05 -3.92445e-05 -3.87707e-05 -3.82328e-05 -3.77313e-05 -3.72354e-05 -3.67858e-05 -3.62356e-05 -3.56e-05 -3.48042e-05 -3.39041e-05 -3.29745e-05 -3.20479e-05 -3.10917e-05 -3.00419e-05 -2.89331e-05 -2.7668e-05 -2.62851e-05 -2.47931e-05 -2.32018e-05 -2.14607e-05 -1.95999e-05 -1.76413e-05 -1.55714e-05 -1.34038e-05 -1.11392e-05 -8.60128e-06 -5.86983e-06 -2.96486e-06 1.38853e-07 3.42852e-06 6.9225e-06 1.06714e-05 1.46535e-05 1.88527e-05 2.33252e-05 2.8139e-05 3.33135e-05 3.88175e-05 4.4608e-05 5.07836e-05 5.73951e-05 6.44138e-05 7.19405e-05 8.00494e-05 8.86787e-05 9.78228e-05 0.000107608 0.000118026 0.000129078 0.000140899 0.000153582 0.000167038 0.000181393 0.000196813 0.000213336 0.000230991 0.000249781 0.00026979 0.00029119 0.000314127 0.000338727 0.000364995 0.000392967 0.000422817 0.000454833 0.000489167 0.000525859 0.00056503 0.000606866 0.00065171 0.000699877 0.000751472 0.00080674 0.000866028 0.000929836 0.000998584 0.00107271 0.00115265 0.00123896 0.00133235 0.00143377 0.00154428 0.00166493 0.00179691 0.00194176 0.00210144 0.00227809 0.00247436 0.00269324 0.00293833 0.00321365 0.00352335 0.00387176 0.00426295 0.00469981 0.0051831 0.0057103 0.00627354 0.00685748 0.00743704 0.00797522 0.00842093 0.00870811 0.00875665 0.00847522 0.00776674 0.0065365 0.0047035 0.00221364 -0.00094624 -0.00473495 -0.0090474 -0.0137105 -0.0184849 -0.0230739 -0.027216 -0.0305476 -0.0327592 -0.0336252 -0.0330348 -0.031014 -0.027731 -0.0234803 -0.018647 -0.0136554 -0.0089116 -0.00475145 -0.00140231 0.00103367 0.00257424 0.0033327 0.00348206 0.00321652 0.00271826 0.00213473 0.00156809 0.00107461 0.000667886 0.000301006 0 0 
0 0 0.000428565 0.000972482 0.00158848 0.00238571 0.00336294 0.00445476 0.00551702 0.00631639 0.006536 0.0058035 0.00374266 4.29941e-05 -0.00546444 -0.0127421 -0.0215085 -0.031241 -0.0412222 -0.0506252 -0.0586212 -0.0644911 -0.0677185 -0.0680493 -0.0655114 -0.0603928 -0.053211 -0.0445968 -0.0351891 -0.0256027 -0.0163787 -0.00794917 -0.000618735 0.00543856 0.0101685 0.0136159 0.0158994 0.0171836 0.0176553 0.0175023 0.0168996 0.015999 0.0149248 0.0137732 0.0126142 0.0114952 0.0104454 0.00948034 0.00860536 0.00781956 0.00711776 0.00649265 0.0059361 0.00544004 0.00499678 0.00459937 0.00424171 0.00391862 0.00362569 0.00335904 0.00311551 0.00289246 0.00268766 0.00249901 0.00232472 0.00216338 0.00201389 0.00187524 0.00174644 0.00162655 0.00151485 0.00141069 0.00131356 0.00122296 0.00113828 0.00105909 0.000985095 0.000916028 0.000851504 0.000791059 0.000734406 0.000681421 0.00063194 0.000585687 0.000542384 0.000501815 0.0004638 0.000428219 0.000394953 0.000363904 0.00033487 0.000307591 0.000282029 0.000258092 0.000235581 0.000214467 0.000194799 0.000176375 0.000159025 0.000142774 0.000127583 0.000113373 0.000100117 8.76972e-05 7.58959e-05 6.47519e-05 5.43929e-05 4.47281e-05 3.56589e-05 2.71051e-05 1.90994e-05 1.15671e-05 4.49902e-06 -2.15352e-06 -8.35058e-06 -1.4121e-05 -1.95168e-05 -2.45059e-05 -2.92313e-05 -3.37796e-05 -3.80602e-05 -4.20894e-05 -4.57556e-05 -4.9144e-05 -5.22867e-05 -5.52504e-05 -5.80313e-05 -6.05896e-05 -6.29555e-05 -6.51633e-05 -6.72123e-05 -6.91026e-05 -7.08773e-05 -7.25e-05 -7.38927e-05 -7.51886e-05 -7.63961e-05 -7.75137e-05 -7.8554e-05 -7.95598e-05 -8.04829e-05 -8.12655e-05 -8.19064e-05 -8.24981e-05 -8.30233e-05 -8.35236e-05 -8.40063e-05 -8.44599e-05 -8.48611e-05 -8.51539e-05 -8.53449e-05 -8.54607e-05 -8.55651e-05 -8.56106e-05 -8.55974e-05 -8.56273e-05 -8.57123e-05 -8.57478e-05 -8.56891e-05 -8.55683e-05 -8.54347e-05 -8.52522e-05 -8.50077e-05 -8.47961e-05 -8.45872e-05 -8.43583e-05 -8.41406e-05 -8.39212e-05 -8.36404e-05 -8.33753e-05 -8.31184e-05 -8.27955e-05 -8.23927e-05 -8.19701e-05 -8.15178e-05 -8.11062e-05 -8.07112e-05 -8.03692e-05 -8.00337e-05 -7.97122e-05 -7.93004e-05 -7.89198e-05 -7.85371e-05 -7.81255e-05 -7.77384e-05 -7.7355e-05 -7.69355e-05 -7.65541e-05 -7.62195e-05 -7.58626e-05 -7.54658e-05 -7.51111e-05 -7.47522e-05 -7.43713e-05 -7.39098e-05 -7.34731e-05 -7.29586e-05 -7.25202e-05 -7.21051e-05 -7.1723e-05 -7.13643e-05 -7.10114e-05 -7.06294e-05 -7.01577e-05 -6.97264e-05 -6.92776e-05 -6.88874e-05 -6.85715e-05 -6.82155e-05 -6.78766e-05 -6.75244e-05 -6.72224e-05 -6.69559e-05 -6.66244e-05 -6.62443e-05 -6.59272e-05 -6.55934e-05 -6.52309e-05 -6.48744e-05 -6.44621e-05 -6.41174e-05 -6.37833e-05 -6.34593e-05 -6.32148e-05 -6.29338e-05 -6.26298e-05 -6.23687e-05 -6.21763e-05 -6.19024e-05 -6.15992e-05 -6.12785e-05 -6.09542e-05 -6.06505e-05 -6.03726e-05 -6.01457e-05 -5.99386e-05 -5.97644e-05 -5.95506e-05 -5.93277e-05 -5.90965e-05 -5.88583e-05 -5.85692e-05 -5.83121e-05 -5.80858e-05 -5.78777e-05 -5.76837e-05 -5.74673e-05 -5.72383e-05 -5.69812e-05 -5.67007e-05 -5.64391e-05 -5.62362e-05 -5.60259e-05 -5.57564e-05 -5.55102e-05 -5.53148e-05 -5.51527e-05 -5.50536e-05 -5.48992e-05 -5.48131e-05 -5.47235e-05 -5.46309e-05 -5.44887e-05 -5.43276e-05 -5.41262e-05 -5.39403e-05 -5.37857e-05 -5.36446e-05 -5.35437e-05 -5.34268e-05 -5.32977e-05 -5.31829e-05 -5.30892e-05 -5.29909e-05 -5.29063e-05 -5.28245e-05 -5.27286e-05 -5.26293e-05 -5.25104e-05 -5.24307e-05 -5.23467e-05 -5.22647e-05 -5.21491e-05 -5.20773e-05 -5.20112e-05 -5.19594e-05 -5.19192e-05 -5.1836e-05 -5.17421e-05 -5.16672e-05 -5.16304e-05 -5.16167e-05 -5.15856e-05 -5.15722e-05 -5.15627e-05 -5.15786e-05 -5.15522e-05 -5.15529e-05 -5.15572e-05 -5.15627e-05 -5.16006e-05 -5.15627e-05 -5.15572e-05 -5.15529e-05 -5.15522e-05 -5.15786e-05 -5.15627e-05 -5.15722e-05 -5.15856e-05 -5.16167e-05 -5.16304e-05 -5.16672e-05 -5.17421e-05 -5.1836e-05 -5.19192e-05 -5.19594e-05 -5.20112e-05 -5.20773e-05 -5.21491e-05 -5.22647e-05 -5.23467e-05 -5.24307e-05 -5.25104e-05 -5.26293e-05 -5.27286e-05 -5.28245e-05 -5.29063e-05 -5.29909e-05 -5.30892e-05 -5.31829e-05 -5.32977e-05 -5.34268e-05 -5.35437e-05 -5.36446e-05 -5.37857e-05 -5.39403e-05 -5.41262e-05 -5.43276e-05 -5.44887e-05 -5.46309e-05 -5.47235e-05 -5.48131e-05 -5.48992e-05 -5.50536e-05 -5.51527e-05 -5.53148e-05 -5.55102e-05 -5.57564e-05 -5.60259e-05 -5.62362e-05 -5.64391e-05 -5.67007e-05 -5.69812e-05 -5.72383e-05 -5.74673e-05 -5.76837e-05 -5.78777e-05 -5.80858e-05 -5.83121e-05 -5.85692e-05 -5.88583e-05 -5.90965e-05 -5.93277e-05 -5.95506e-05 -5.97644e-05 -5.99386e-05 -6.01457e-05 -6.03726e-05 -6.06505e-05 -6.09542e-05 -6.12785e-05 -6.15992e-05 -6.19024e-05 -6.21763e-05 -6.23687e-05 -6.26298e-05 -6.29338e-05 -6.32148e-05 -6.34593e-05 -6.37833e-05 -6.41174e-05 -6.44621e-05 -6.48744e-05 -6.52309e-05 -6.55934e-05 -6.59272e-05 -6.62443e-05 -6.66244e-05 -6.69559e-05 -6.72224e-05 -6.75244e-05 -6.78766e-05 -6.82155e-05 -6.85715e-05 -6.88874e-05 -6.92776e-05 -6.97264e-05 -7.01577e-05 -7.06294e-05 -7.10114e-05 -7.13643e-05 -7.1723e-05 -7.21051e-05 -7.25202e-05 -7.29586e-05 -7.34731e-05 -7.39098e-05 -7.43713e-05 -7.47522e-05 -7.51111e-05 -7.54658e-05 -7.58626e-05 -7.62195e-05 -7.65541e-05 -7.69355e-05 -7.7355e-05 -7.77384e-05 -7.81255e-05 -7.85371e-05 -7.89198e-05 -7.93004e-05 -7.97122e-05 -8.00337e-05 -8.03692e-05 -8.07112e-05 -8.11062e-05 -8.15178e-05 -8.19701e-05 -8.23927e-05 -8.27955e-05 -8.31184e-05 -8.33753e-05 -8.36404e-05 -8.39212e-05 -8.41406e-05 -8.43583e-05 -8.45872e-05 -8.47961e-05 -8.50076e-05 -8.52521e-05 -8.54347e-05 -8.55683e-05 -8.56892e-05 -8.57479e-05 -8.57123e-05 -8.56273e-05 -8.55974e-05 -8.56105e-05 -8.5565e-05 -8.54606e-05 -8.53448e-05 -8.5154e-05 -8.48611e-05 -8.44598e-05 -8.40059e-05 -8.35228e-05 -8.30224e-05 -8.24968e-05 -8.19041e-05 -8.12617e-05 -8.04781e-05 -7.95551e-05 -7.85497e-05 -7.75091e-05 -7.63902e-05 -7.518e-05 -7.3881e-05 -7.24863e-05 -7.08646e-05 -6.90938e-05 -6.72078e-05 -6.5161e-05 -6.29533e-05 -6.0587e-05 -5.80281e-05 -5.52446e-05 -5.22744e-05 -4.91224e-05 -4.57273e-05 -4.20611e-05 -3.80396e-05 -3.3772e-05 -2.92373e-05 -2.4519e-05 -1.95286e-05 -1.41333e-05 -8.3783e-06 -2.20697e-06 4.43226e-06 1.15078e-05 1.90464e-05 2.70559e-05 3.56292e-05 4.47222e-05 5.43898e-05 6.47198e-05 7.5809e-05 8.75654e-05 9.99889e-05 0.000113292 0.000127557 0.000142784 0.000159036 0.000176363 0.000194768 0.000214431 0.000235545 0.000258043 0.000281963 0.000307526 0.000334816 0.000363869 0.000394915 0.000428147 0.000463728 0.000501782 0.000542377 0.000585671 0.000631916 0.00068143 0.000734451 0.000791111 0.000851572 0.000916104 0.000985162 0.00105913 0.00113833 0.00122304 0.00131368 0.00141081 0.00151496 0.00162669 0.00174658 0.00187536 0.00201396 0.00216336 0.00232455 0.00249868 0.00268705 0.0028914 0.0031137 0.0033562 0.00362134 0.00391212 0.00423222 0.00458597 0.00497844 0.00541552 0.0059042 0.0064523 0.00706811 0.00776018 0.00853645 0.00940289 0.0103614 0.0114076 0.0125271 0.0136917 0.0148545 0.0159458 0.0168694 0.0175004 0.0176857 0.017249 0.0160006 0.013752 0.0103365 0.00563435 -0.000400406 -0.00771371 -0.0161309 -0.0253455 -0.0349209 -0.0442324 -0.0529108 -0.0601262 -0.0652532 -0.0678012 -0.0674852 -0.0642785 -0.0584344 -0.0504683 -0.0410974 -0.0311482 -0.0214457 -0.0127054 -0.00544883 4.31625e-05 0.00373281 0.00578823 0.00651849 0.00629815 0.00549754 0.00443116 0.00332943 0.00233214 0.00148968 0.000672946 0 0 
0 0 0.000718179 0.00158848 0.00249317 0.00357874 0.00478784 0.00595832 0.00681748 0.00698755 0.00601813 0.00344877 -0.00110426 -0.00785222 -0.0167502 -0.0274481 -0.0392928 -0.0513875 -0.0627006 -0.0722045 -0.0790179 -0.0825242 -0.0824433 -0.0788511 -0.0721453 -0.0629701 -0.0521222 -0.0404345 -0.0286832 -0.0175322 -0.00749281 0.00109314 0.00805174 0.0133576 0.017104 0.0194672 0.0206707 0.0209552 0.0205546 0.0196789 0.0185053 0.017174 0.0157896 0.0144253 0.0131282 0.011925 0.0108277 0.0098381 0.00895205 0.00816189 0.00745799 0.00683032 0.00626963 0.00576736 0.00531553 0.00490769 0.0045381 0.00420207 0.00389537 0.00361474 0.00335713 0.0031202 0.00290169 0.00269954 0.00251223 0.00233841 0.00217706 0.00202721 0.00188768 0.00175753 0.00163615 0.00152286 0.00141719 0.00131843 0.00122604 0.00113983 0.00105931 0.000984245 0.000913806 0.000847686 0.000785837 0.000728258 0.000674642 0.000624392 0.000577177 0.000532814 0.000491392 0.000452796 0.000416717 0.000382946 0.000351223 0.000321438 0.000293716 0.00026761 0.000243066 0.000220155 0.000198918 0.000178826 0.000159916 0.000142343 0.000125862 0.000110437 9.61637e-05 8.26239e-05 6.96493e-05 5.75103e-05 4.63561e-05 3.58757e-05 2.59603e-05 1.66576e-05 8.07952e-06 7.8099e-09 -7.63003e-06 -1.48052e-05 -2.135e-05 -2.75407e-05 -3.33167e-05 -3.86477e-05 -4.39419e-05 -4.89389e-05 -5.35349e-05 -5.78134e-05 -6.16113e-05 -6.52163e-05 -6.86273e-05 -7.18313e-05 -7.47716e-05 -7.74607e-05 -7.99563e-05 -8.22275e-05 -8.44156e-05 -8.63988e-05 -8.82396e-05 -8.98628e-05 -9.12601e-05 -9.26477e-05 -9.39581e-05 -9.51978e-05 -9.6211e-05 -9.72304e-05 -9.80103e-05 -9.86783e-05 -9.9365e-05 -9.99872e-05 -0.000100562 -0.000101138 -0.000101562 -0.00010197 -0.000102254 -0.000102383 -0.000102401 -0.000102417 -0.000102532 -0.000102521 -0.000102454 -0.000102548 -0.000102578 -0.00010246 -0.000102212 -0.000101946 -0.000101746 -0.000101383 -0.000101105 -0.000100843 -0.000100548 -0.000100234 -0.000100014 -9.97082e-05 -9.9323e-05 -9.90856e-05 -9.86435e-05 -9.80727e-05 -9.75046e-05 -9.70256e-05 -9.64724e-05 -9.59116e-05 -9.54711e-05 -9.49958e-05 -9.45233e-05 -9.4063e-05 -9.35295e-05 -9.31397e-05 -9.2705e-05 -9.22402e-05 -9.17769e-05 -9.12446e-05 -9.07132e-05 -9.03544e-05 -9.00461e-05 -8.95666e-05 -8.90228e-05 -8.85935e-05 -8.82094e-05 -8.77439e-05 -8.71655e-05 -8.66306e-05 -8.58955e-05 -8.54672e-05 -8.50152e-05 -8.45929e-05 -8.40923e-05 -8.37306e-05 -8.31766e-05 -8.2479e-05 -8.18541e-05 -8.13476e-05 -8.09989e-05 -8.06232e-05 -8.00646e-05 -7.96285e-05 -7.93032e-05 -7.90725e-05 -7.86496e-05 -7.8181e-05 -7.78067e-05 -7.74625e-05 -7.70126e-05 -7.66118e-05 -7.61365e-05 -7.57489e-05 -7.54544e-05 -7.49857e-05 -7.46913e-05 -7.441e-05 -7.39431e-05 -7.35751e-05 -7.32127e-05 -7.29566e-05 -7.2667e-05 -7.24044e-05 -7.21529e-05 -7.18478e-05 -7.13809e-05 -7.10561e-05 -7.07526e-05 -7.05341e-05 -7.01798e-05 -6.97995e-05 -6.94845e-05 -6.92826e-05 -6.89627e-05 -6.85061e-05 -6.82283e-05 -6.802e-05 -6.78597e-05 -6.76544e-05 -6.74234e-05 -6.71142e-05 -6.67657e-05 -6.64599e-05 -6.62846e-05 -6.61577e-05 -6.58182e-05 -6.54432e-05 -6.51386e-05 -6.50006e-05 -6.4791e-05 -6.47189e-05 -6.45134e-05 -6.43395e-05 -6.40986e-05 -6.39246e-05 -6.37927e-05 -6.3633e-05 -6.34488e-05 -6.31951e-05 -6.30594e-05 -6.28576e-05 -6.28303e-05 -6.27761e-05 -6.26301e-05 -6.24166e-05 -6.23029e-05 -6.22157e-05 -6.20646e-05 -6.19131e-05 -6.1738e-05 -6.15382e-05 -6.14019e-05 -6.14104e-05 -6.13688e-05 -6.12213e-05 -6.10628e-05 -6.10129e-05 -6.09652e-05 -6.08192e-05 -6.08059e-05 -6.07274e-05 -6.07022e-05 -6.06613e-05 -6.05666e-05 -6.04848e-05 -6.04166e-05 -6.03445e-05 -6.04147e-05 -6.0469e-05 -6.04987e-05 -6.05413e-05 -6.05705e-05 -6.05699e-05 -6.06916e-05 -6.05699e-05 -6.05705e-05 -6.05413e-05 -6.04987e-05 -6.0469e-05 -6.04147e-05 -6.03445e-05 -6.04166e-05 -6.04848e-05 -6.05666e-05 -6.06613e-05 -6.07022e-05 -6.07274e-05 -6.08059e-05 -6.08192e-05 -6.09652e-05 -6.10129e-05 -6.10628e-05 -6.12213e-05 -6.13688e-05 -6.14104e-05 -6.14019e-05 -6.15382e-05 -6.1738e-05 -6.19131e-05 -6.20646e-05 -6.22157e-05 -6.23029e-05 -6.24166e-05 -6.26301e-05 -6.27761e-05 -6.28303e-05 -6.28576e-05 -6.30594e-05 -6.31951e-05 -6.34488e-05 -6.3633e-05 -6.37927e-05 -6.39246e-05 -6.40986e-05 -6.43395e-05 -6.45134e-05 -6.47189e-05 -6.4791e-05 -6.50006e-05 -6.51386e-05 -6.54432e-05 -6.58182e-05 -6.61577e-05 -6.62846e-05 -6.64599e-05 -6.67657e-05 -6.71142e-05 -6.74234e-05 -6.76544e-05 -6.78597e-05 -6.802e-05 -6.82283e-05 -6.85061e-05 -6.89627e-05 -6.92826e-05 -6.94845e-05 -6.97995e-05 -7.01798e-05 -7.05341e-05 -7.07526e-05 -7.10561e-05 -7.13809e-05 -7.18478e-05 -7.21529e-05 -7.24044e-05 -7.2667e-05 -7.29566e-05 -7.32127e-05 -7.35751e-05 -7.39431e-05 -7.441e-05 -7.46913e-05 -7.49857e-05 -7.54544e-05 -7.57489e-05 -7.61365e-05 -7.66118e-05 -7.70126e-05 -7.74625e-05 -7.78067e-05 -7.8181e-05 -7.86496e-05 -7.90725e-05 -7.93032e-05 -7.96285e-05 -8.00646e-05 -8.06232e-05 -8.09989e-05 -8.13476e-05 -8.18541e-05 -8.2479e-05 -8.31766e-05 -8.37306e-05 -8.40923e-05 -8.45929e-05 -8.50152e-05 -8.54672e-05 -8.58955e-05 -8.66306e-05 -8.71655e-05 -8.77439e-05 -8.82094e-05 -8.85935e-05 -8.90228e-05 -8.95666e-05 -9.00461e-05 -9.03544e-05 -9.07132e-05 -9.12446e-05 -9.17769e-05 -9.22402e-05 -9.2705e-05 -9.31397e-05 -9.35295e-05 -9.4063e-05 -9.45233e-05 -9.49958e-05 -9.54711e-05 -9.59116e-05 -9.64724e-05 -9.70256e-05 -9.75046e-05 -9.80727e-05 -9.86435e-05 -9.90856e-05 -9.9323e-05 -9.97082e-05 -0.000100014 -0.000100234 -0.000100548 -0.000100843 -0.000101105 -0.000101383 -0.000101746 -0.000101946 -0.000102212 -0.00010246 -0.000102578 -0.000102548 -0.000102454 -0.000102521 -0.000102532 -0.000102417 -0.000102401 -0.000102383 -0.000102254 -0.00010197 -0.000101561 -0.000101137 -0.000100561 -9.99847e-05 -9.93602e-05 -9.86717e-05 -9.8004e-05 -9.72259e-05 -9.62066e-05 -9.51913e-05 -9.39471e-05 -9.26315e-05 -9.1241e-05 -8.98457e-05 -8.82297e-05 -8.63969e-05 -8.44169e-05 -8.22272e-05 -7.99534e-05 -7.74567e-05 -7.47652e-05 -7.18175e-05 -6.86007e-05 -6.51788e-05 -6.15735e-05 -5.77853e-05 -5.35229e-05 -4.89437e-05 -4.39562e-05 -3.86581e-05 -3.33215e-05 -2.75619e-05 -2.14122e-05 -1.48978e-05 -7.70946e-06 -4.5396e-08 8.03147e-06 1.6631e-05 2.5972e-05 3.58888e-05 4.63193e-05 5.73882e-05 6.94552e-05 8.24395e-05 9.6074e-05 0.000110448 0.000125932 0.00014241 0.000159937 0.000178798 0.000198879 0.000220127 0.000243027 0.000267529 0.000293633 0.000321377 0.00035119 0.000382919 0.000416626 0.000452669 0.000491333 0.000532817 0.000577151 0.000624329 0.000674632 0.000728353 0.000785965 0.000847811 0.000913963 0.00098436 0.00105941 0.00113989 0.00122619 0.00131859 0.00141739 0.001523 0.00163632 0.00175771 0.00188786 0.00202731 0.00217708 0.00233821 0.00251182 0.00269887 0.00290049 0.00311817 0.00335379 0.00360961 0.00388767 0.0041907 0.00452189 0.00488539 0.00528567 0.00572838 0.00622032 0.00676952 0.00738519 0.00807744 0.00885716 0.00973524 0.0107207 0.0118193 0.0130299 0.0143415 0.0157278 0.0171415 0.0185083 0.0197224 0.0206413 0.0210857 0.0208429 0.019677 0.0173455 0.0136231 0.00833341 0.00138368 -0.00719937 -0.0172389 -0.0283877 -0.0401213 -0.0518178 -0.0626717 -0.0718461 -0.0785527 -0.0821511 -0.0822456 -0.078761 -0.0719766 -0.0625073 -0.051232 -0.0391754 -0.0273667 -0.0167003 -0.00782784 -0.00109889 0.00344127 0.00600242 0.00696614 0.00679003 0.00592096 0.0047323 0.00349025 0.00233355 0.00108171 0 0 