<?xml version="1.0"?>
<VTKFile type="ImageData" version="0.1" byte_order="LittleEndian">
<ImageData WholeExtent="0 599 0 599 0 0" Origin="0 0 0" Spacing="5 5 0">
<Piece Extent="0 599 0 599 0 0">
<PointData Scalars="Amplitude">
<DataArray type="Float32" Name="Amplitude" format="ascii">
0 0 0 0 0 0 0 0 0 0 0 0 0 0 0 0 0 0 0 0 0 0 0 0 0 0 0 0 0 0 0 0 0 0 0 0 0 0 0 0 0 0 0 0 0 0 0 0 0 0 0 0 0 0 0 0 0 0 0 0 0 0 0 0 0 0 0 0 0 0 0 0 0 0 0 0 0 0 0 0 0 0 0 0 0 0 0 0 0 0 0 0 0 0 0 0 0 0 0 0 0 0 0 0 0 0 0 0 0 0 0 0 0 0 0 0 0 0 0 0 0 0 0 0 0 0 0 0 0 0 0 0 0 0 0 0 0 0 0 0 0 0 0 0 0 0 0 0 0 0 0 0 0 0 0 0 0 0 0 0 0 0 0 0 0 0 0 0 0 0 0 0 0 0 0 0 0 0 0 0 0 0 0 0 0 0 0 0 0 0 0 0 0 0 0 0 0 0 0 0 0 0 0 0 0 0 0 0 0 0 0 0 0 0 0 0 0 0 0 0 0 0 0 0 0 0 0 0 0 0 0 0 0 0 0 0 0 0 0 0 0 0 0 0 0 0 0 0 0 0 0 0 0 0 0 0 0 0 0 0 0 0 0 0 0 0 0 0 0 0 0 0 0 0 0 0 0 0 0 0 0 0 0 0 0 0 0 0 0 0 0 0 0 0 0 0 0 0 0 0 0 0 0 0 0 0 0 0 0 0 0 0 0 0 0 0 0 0 0 0 0 0 0 0 0 0 0 0 0 0 0 0 0 0 0 0 0 0 0 0 0 0 0 0 0 0 0 0 0 0 0 0 0 0 0 0 0 0 0 0 0 0 0 0 0 0 0 0 0 0 0 0 0 0 0 0 0 0 0 0 0 0 0 0 0 0 0 0 0 0 0 0 0 0 0 0 0 0 0 0 0 0 0 0 0 0 0 0 0 0 0 0 0 0 0 0 0 0 0 0 0 0 0 0 0 0 0 0 0 0 0 0 0 0 0 0 0 0 0 0 0 0 0 0 0 0 0 0 0 0 0 0 0 0 0 0 0 0 0 0 0 0 0 0 0 0 0 0 0 0 0 0 0 0 0 0 0 0 0 0 0 0 0 0 0 0 0 0 0 0 0 0 0 0 0 0 0 0 0 0 0 0 0 0 0 0 0 0 0 0 0 0 0 0 0 0 0 0 0 0 0 0 0 0 0 0 0 0 0 0 0 0 0 0 0 0 0 0 0 0 0 0 0 0 0 0 0 0 0 0 0 0 0 0 0 0 0 0 0 0 0 0 0 0 0 0 0 0 0 0 0 0 0 0 0 0 0 0 0 0 0 0 0 0 0 0 0 0 0 0 0 0 0 0 0 0 0 0 0 0 
0 0 0 0 0 0 0 0 0 0 0 0 0 0 0 0 0 0 0 0 0 0 0 0 0 0 0 0 0 0 0 0 0 0 0 0 0 0 0 0 0 0 0 0 0 0 0 0 0 0 0 0 0 0 0 0 0 0 0 0 0 0 0 0 0 0 0 0 0 0 0 0 0 0 0 0 0 0 0 0 0 0 0 0 0 0 0 0 0 0 0 0 0 0 0 0 0 0 0 0 0 0 0 0 0 0 0 0 0 0 0 0 0 0 0 0 0 0 0 0 0 0 0 0 0 0 0 0 0 0 0 0 0 0 0 0 0 0 0 0 0 0 0 0 0 0 0 0 0 0 0 0 0 0 0 0 0 0 0 0 0 0 0 0 0 0 0 0 0 0 0 0 0 0 0 0 0 0 0 0 0 0 0 0 0 0 0 0 0 0 0 0 0 0 0 0 0 0 0 0 0 0 0 0 0 0 0 0 0 0 0 0 0 0 0 0 0 0 0 0 0 0 0 0 0 0 0 0 0 0 0 0 0 0 0 0 0 0 0 0 0 0 0 0 0 0 0 0 0 0 0 0 0 0 0 0 0 0 0 0 0 0 0 0 0 0 0 0 0 0 0 0 0 0 0 0 0 0 0 0 0 0 0 0 0 0 0 0 0 0 0 0 0 0 0 0 0 0 0 0 0 0 0 0 0 0 0 0 0 0 0 0 0 0 0 0 0 0 0 0 0 0 0 0 0 0 0 0 0 0 0 0 0 0 0 0 0 0 0 0 0 0 0 0 0 0 0 0 0 0 0 0 0 0 0 0 0 0 0 0 0 0 0 0 0 0 0 0 0 0 0 0 0 0 0 0 0 0 0 0 0 0 0 0 0 0 0 0 0 0 0 0 0 0 0 0 0 0 0 0 0 0 0 0 0 0 0 0 0 0 0 0 0 0 0 0 0 0 0 0 0 0 0 0 0 0 0 0 0 0 0 0 0 0 0 0 0 0 0 0 0 0 0 0 0 0 0 0 0 0 0 0 0 0 0 0 0 0 0 0 0 0 0 0 0 0 0 0 0 0 0 0 0 0 0 0 0 0 0 0 0 0 0 0 0 0 0 0 0 0 0 0 0 0 0 0 0 0 0 0 0 0 0 0 0 0 0 0 0 0 0 0 0 0 0 0 0 0 0 0 0 0 0 0 0 0 0 0 0 0 0 0 0 0 0 0 0 0 0 0 0 0 0 0 0 0 0 0 0 0 0 0 0 0 0 0 0 0 0 0 0 0 0 0 0 0 0 0 0 0 0 0 0 0 0 0 0 0 0 0 0 0 0 0 0 0 0 0 0 0 0 0 0 0 0 0 0 0 0 0 
0 0 0 0 0 0 0 0 0 0 0 0 0 0 0 0 0 0 0 0 0 0 0 0 0 0 0 0 0 0 0 0 0 0 0 0 0 0 0 0 0 0 0 0 0 0 0 0 0 0 0 0 0 0 0 0 0 0 0 0 0 0 0 0 0 0 0 0 0 0 0 0 0 0 0 0 0 0 0 0 0 0 0 0 0 0 0 0 0 0 0 0 0 0 0 0 0 0 0 0 0 0 0 0 0 0 0 0 0 0 0 0 0 0 0 0 0 0 0 0 0 0 0 0 0 0 0 0 0 0 0 0 0 0 0 0 0 0 0 0 0 0 0 0 0 0 0 0 0 0 0 0 0 0 0 0 0 0 0 0 0 0 0 0 0 0 0 0 0 0 0 0 0 0 -0 -0 -2.03574e-44 -8.95726e-44 -1.77788e-43 -1.96788e-43 1.26216e-43 1.3463e-42 4.0457e-42 7.92175e-42 9.23548e-42 -2.92197e-42 -4.94739e-41 -1.55499e-40 -3.20749e-40 -4.47016e-40 -2.15767e-40 1.03752e-39 4.28516e-39 1.02496e-38 1.77913e-38 2.07689e-38 3.6443e-39 -6.18781e-38 -2.1316e-37 -4.74879e-37 -8.0442e-37 -9.92754e-37 -5.28803e-37 1.51694e-36 6.45008e-36 1.55004e-35 2.86119e-35 4.21335e-35 4.53397e-35 1.64278e-35 -8.00156e-35 -2.90116e-34 -6.56166e-34 -1.18262e-33 -1.77557e-33 -2.1542e-33 -1.74569e-33 4.02247e-34 5.62464e-33 1.54546e-32 3.11144e-32 5.2538e-32 7.68217e-32 9.61213e-32 9.52392e-32 4.94947e-32 -7.60841e-32 -3.24713e-31 -7.40997e-31 -1.35715e-30 -2.17042e-30 -3.111e-30 -4.00126e-30 -4.5106e-30 -4.11346e-30 -2.06294e-30 2.60329e-30 1.10045e-29 2.4284e-29 4.33822e-29 6.87015e-29 9.96615e-29 1.34159e-28 1.6797e-28 1.94157e-28 2.02564e-28 1.79523e-28 1.07873e-28 -3.25441e-29 -2.63824e-28 -6.08269e-28 -1.08594e-27 -1.71154e-27 -2.49065e-27 -3.41564e-27 -4.46137e-27 -5.58108e-27 -6.70292e-27 -7.72739e-27 -8.52622e-27 -8.94302e-27 -8.79575e-27 -7.88157e-27 -5.98354e-27 -2.87935e-27 1.64834e-27 7.80069e-27 1.57508e-26 2.56325e-26 3.75295e-26 5.14671e-26 6.74057e-26 8.52376e-26 1.04786e-25 1.25811e-25 1.48012e-25 1.7104e-25 1.94511e-25 2.18018e-25 2.41147e-25 2.63495e-25 2.84684e-25 3.04376e-25 3.22284e-25 3.38187e-25 3.51933e-25 3.63443e-25 3.72716e-25 3.79821e-25 3.84895e-25 3.88135e-25 3.89786e-25 3.90125e-25 3.89455e-25 3.88086e-25 3.8632e-25 3.8444e-25 3.82695e-25 3.81294e-25 3.8039e-25 3.80078e-25 3.8039e-25 3.81294e-25 3.82695e-25 3.8444e-25 3.8632e-25 3.88086e-25 3.89455e-25 3.90125e-25 3.89786e-25 3.88135e-25 3.84895e-25 3.79821e-25 3.72716e-25 3.63443e-25 3.51933e-25 3.38187e-25 3.22284e-25 3.04376e-25 2.84684e-25 2.63495e-25 2.41147e-25 2.18018e-25 1.94511e-25 1.7104e-25 1.48012e-25 1.25811e-25 1.04786e-25 8.52376e-26 6.74057e-26 5.14671e-26 3.75295e-26 2.56325e-26 1.57508e-26 7.80069e-27 1.64834e-27 -2.87935e-27 -5.98354e-27 -7.88157e-27 -8.79575e-27 -8.94302e-27 -8.52622e-27 -7.72739e-27 -6.70292e-27 -5.58108e-27 -4.46137e-27 -3.41564e-27 -2.49065e-27 -1.71154e-27 -1.08594e-27 -6.08269e-28 -2.63824e-28 -3.25441e-29 1.07873e-28 1.79523e-28 2.02564e-28 1.94157e-28 1.6797e-28 1.34159e-28 9.96615e-29 6.87015e-29 4.33822e-29 2.4284e-29 1.10045e-29 2.60329e-30 -2.06294e-30 -4.11346e-30 -4.5106e-30 -4.00126e-30 -3.111e-30 -2.17042e-30 -1.35715e-30 -7.40997e-31 -3.24713e-31 -7.60841e-32 4.94947e-32 9.52392e-32 9.61213e-32 7.68217e-32 5.2538e-32 3.11144e-32 1.54546e-32 5.62464e-33 4.02247e-34 -1.74569e-33 -2.1542e-33 -1.77557e-33 -1.18262e-33 -6.56166e-34 -2.90116e-34 -8.00156e-35 1.64278e-35 4.53397e-35 4.21335e-35 2.86119e-35 1.55004e-35 6.45008e-36 1.51694e-36 -5.28803e-37 -9.92754e-37 -8.0442e-37 -4.74879e-37 -2.1316e-37 -6.18781e-38 3.6443e-39 2.07689e-38 1.77913e-38 1.02496e-38 4.28516e-39 1.03752e-39 -2.15767e-40 -4.47016e-40 -3.20749e-40 -1.55499e-40 -4.94739e-41 -2.92197e-42 9.23548e-42 7.92175e-42 4.0457e-42 1.3463e-42 1.26216e-43 -1.96788e-43 -1.77788e-43 -8.95726e-44 -2.03574e-44 -0 -0 0 0 0 0 0 0 0 0 0 0 0 0 0 0 0 0 0 0 0 0 0 0 0 0 0 0 0 0 0 0 0 0 0 0 0 0 0 0 0 0 0 0 0 0 0 0 0 0 0 0 0 0 0 0 0 0 0 0 0 0 0 0 0 0 0 0 0 0 0 0 0 0 0 0 0 0 0 0 0 0 0 0 0 0 0 0 0 0 0 0 0 0 0 0 0 0 0 0 0 0 0 0 0 0 0 0 0 0 0 0 0 0 0 0 0 0 0 0 0 0 0 0 0 0 0 0 0 0 0 0 0 0 0 0 0 0 0 0 0 0 0 0 0 0 0 0 0 0 0 0 0 0 0 0 0 0 0 0 0 0 0 0 0 0 0 0 0 0 0 0 0 0 0 
0 0 0 0 0 0 0 0 0 0 0 0 0 0 0 0 0 0 0 0 0 0 0 0 0 0 0 0 0 0 0 0 0 0 0 0 0 0 0 0 0 0 0 0 0 0 0 0 0 0 0 0 0 0 0 0 0 0 0 0 0 0 0 0 0 0 0 0 0 0 0 0 0 0 0 0 0 0 0 0 0 0 0 0 0 0 0 0 0 0 0 0 0 0 0 0 0 0 0 0 0 0 0 0 0 0 0 0 0 0 0 0 0 0 0 0 0 0 0 0 0 0 0 0 0 0 0 0 0 0 0 0 0 0 0 0 0 0 0 0 0 0 0 0 0 0 0 0 0 0 0 0 0 0 0 0 0 0 0 0 0 0 0 0 0 0 0 0 0 0 0 0 0 -9.63371e-46 -1.58971e-44 -7.54297e-44 -1.96873e-43 -3.28203e-43 -1.84906e-43 9.39795e-43 4.19519e-42 1.01936e-41 1.61018e-41 9.74665e-42 -3.7445e-41 -1.69775e-40 -4.17436e-40 -7.03004e-40 -6.54817e-40 6.40364e-40 4.74123e-39 1.32931e-38 2.59045e-38 3.54321e-38 2.04952e-38 -6.20141e-38 -2.75545e-37 -6.75567e-37 -1.22747e-36 -1.6449e-36 -1.1512e-36 1.75446e-36 9.29566e-36 2.37391e-35 4.53878e-35 6.85683e-35 7.53771e-35 2.8278e-35 -1.34797e-34 -4.95294e-34 -1.12676e-33 -2.03005e-33 -3.01731e-33 -3.54239e-33 -2.50335e-33 1.90918e-33 1.21754e-32 3.10004e-32 6.01746e-32 9.84525e-32 1.38276e-31 1.61476e-31 1.34633e-31 5.61715e-33 -2.96168e-31 -8.52193e-31 -1.73546e-30 -2.97491e-30 -4.5003e-30 -6.06748e-30 -7.16936e-30 -6.94597e-30 -4.11691e-30 3.0293e-30 1.65445e-29 3.85777e-29 7.09303e-29 1.14369e-28 1.67684e-28 2.26515e-28 2.8203e-28 3.19597e-28 3.17667e-28 2.47158e-28 7.16669e-29 -2.5113e-28 -7.6654e-28 -1.51813e-27 -2.54108e-27 -3.85359e-27 -5.44677e-27 -7.27332e-27 -9.23607e-27 -1.11771e-26 -1.28691e-26 -1.40095e-26 -1.42199e-26 -1.30504e-26 -9.99103e-27 -4.48985e-27 4.02214e-27 1.61e-26 3.22485e-26 5.28839e-26 7.82934e-26 1.08598e-25 1.43719e-25 1.83352e-25 2.2695e-25 2.7372e-25 3.2263e-25 3.7243e-25 4.21686e-25 4.68827e-25 5.12196e-25 5.5012e-25 5.8097e-25 6.03232e-25 6.1557e-25 6.16886e-25 6.06376e-25 5.8356e-25 5.48317e-25 5.00896e-25 4.41918e-25 3.72357e-25 2.93522e-25 2.0701e-25 1.14665e-25 1.85257e-26 -7.924e-26 -1.76391e-25 -2.70678e-25 -3.59904e-25 -4.41981e-25 -5.14985e-25 -5.77204e-25 -6.27177e-25 -6.63731e-25 -6.86012e-25 -6.93498e-25 -6.86012e-25 -6.63731e-25 -6.27177e-25 -5.77204e-25 -5.14985e-25 -4.41981e-25 -3.59904e-25 -2.70678e-25 -1.76391e-25 -7.924e-26 1.85257e-26 1.14665e-25 2.0701e-25 2.93522e-25 3.72357e-25 4.41918e-25 5.00896e-25 5.48317e-25 5.8356e-25 6.06376e-25 6.16886e-25 6.1557e-25 6.03232e-25 5.8097e-25 5.5012e-25 5.12196e-25 4.68827e-25 4.21686e-25 3.7243e-25 3.2263e-25 2.7372e-25 2.2695e-25 1.83352e-25 1.43719e-25 1.08598e-25 7.82934e-26 5.28839e-26 3.22485e-26 1.61e-26 4.02214e-27 -4.48985e-27 -9.99103e-27 -1.30504e-26 -1.42199e-26 -1.40095e-26 -1.28691e-26 -1.11771e-26 -9.23607e-27 -7.27332e-27 -5.44677e-27 -3.85359e-27 -2.54108e-27 -1.51813e-27 -7.6654e-28 -2.5113e-28 7.16669e-29 2.47158e-28 3.17667e-28 3.19597e-28 2.8203e-28 2.26515e-28 1.67684e-28 1.14369e-28 7.09303e-29 3.85777e-29 1.65445e-29 3.0293e-30 -4.11691e-30 -6.94597e-30 -7.16936e-30 -6.06748e-30 -4.5003e-30 -2.97491e-30 -1.73546e-30 -8.52193e-31 -2.96168e-31 5.61715e-33 1.34633e-31 1.61476e-31 1.38276e-31 9.84525e-32 6.01746e-32 3.10004e-32 1.21754e-32 1.90918e-33 -2.50335e-33 -3.54239e-33 -3.01731e-33 -2.03005e-33 -1.12676e-33 -4.95294e-34 -1.34797e-34 2.8278e-35 7.53771e-35 6.85683e-35 4.53878e-35 2.37391e-35 9.29566e-36 1.75446e-36 -1.1512e-36 -1.6449e-36 -1.22747e-36 -6.75567e-37 -2.75545e-37 -6.20141e-38 2.04952e-38 3.54321e-38 2.59045e-38 1.32931e-38 4.74123e-39 6.40364e-40 -6.54817e-40 -7.03004e-40 -4.17436e-40 -1.69775e-40 -3.7445e-41 9.74665e-42 1.61018e-41 1.01936e-41 4.19519e-42 9.39795e-43 -1.84906e-43 -3.28203e-43 -1.96873e-43 -7.54297e-44 -1.58971e-44 -9.63371e-46 0 0 0 0 0 0 0 0 0 0 0 0 0 0 0 0 0 0 0 0 0 0 0 0 0 0 0 0 0 0 0 0 0 0 0 0 0 0 0 0 0 0 0 0 0 0 0 0 0 0 0 0 0 0 0 0 0 0 0 0 0 0 0 0 0 0 0 0 0 0 0 0 0 0 0 0 0 0 0 0 0 0 0 0 0 0 0 0 0 0 0 0 0 0 0 0 0 0 0 0 0 0 0 0 0 0 0 0 0 0 0 0 0 0 0 0 0 0 0 0 0 0 0 0 0 0 0 0 0 0 0 0 0 0 0 0 0 0 0 0 0 0 0 0 0 0 0 0 0 0 0 0 0 0 0 0 0 0 0 0 0 0 0 0 0 0 0 0 0 0 0 0 
0 0 0 0 0 0 0 0 0 0 0 0 0 0 0 0 0 0 0 0 0 0 0 0 0 0 0 0 0 0 0 0 0 0 0 0 0 0 0 0 0 0 0 0 0 0 0 0 0 0 0 0 0 0 0 0 0 0 0 0 0 0 0 0 0 0 0 0 0 0 0 0 0 0 0 0 0 0 0 0 0 0 0 0 0 0 0 0 0 0 0 0 0 0 0 0 0 0 0 0 0 0 0 0 0 0 0 0 0 0 0 0 0 0 0 0 0 0 0 0 0 0 0 0 0 0 0 0 0 0 0 0 0 0 0 0 0 0 0 0 0 0 0 0 0 0 0 0 0 0 0 0 0 0 0 0 0 0 0 0 0 0 0 0 0 0 0 0 0 0 0 0 -0 -1.36441e-44 -9.55084e-44 -2.93347e-43 -5.63499e-43 -5.15745e-43 9.67363e-43 5.87786e-42 1.59185e-41 2.79185e-41 2.4064e-41 -4.17699e-41 -2.47747e-40 -6.62926e-40 -1.19922e-39 -1.29422e-39 5.44909e-40 7.01975e-39 2.12671e-38 4.34287e-38 6.25978e-38 4.3457e-38 -8.80776e-38 -4.44993e-37 -1.13293e-36 -2.10815e-36 -2.89021e-36 -2.12864e-36 2.83328e-36 1.59788e-35 4.14045e-35 7.96605e-35 1.20373e-34 1.30718e-34 4.18677e-35 -2.59551e-34 -9.20434e-34 -2.06747e-33 -3.68164e-33 -5.37584e-33 -6.07509e-33 -3.65531e-33 5.30583e-33 2.53765e-32 6.12766e-32 1.1549e-31 1.83952e-31 2.4957e-31 2.73992e-31 1.89268e-31 -1.0727e-31 -7.49456e-31 -1.88257e-30 -3.61866e-30 -5.95851e-30 -8.6755e-30 -1.1164e-29 -1.22682e-29 -1.0124e-29 -2.06919e-30 1.52999e-29 4.58313e-29 9.31735e-29 1.59691e-28 2.44882e-28 3.43296e-28 4.42064e-28 5.18279e-28 5.36601e-28 4.47627e-28 1.8772e-28 -3.18981e-28 -1.15556e-27 -2.40369e-27 -4.13099e-27 -6.37408e-27 -9.11811e-27 -1.22733e-26 -1.56505e-26 -1.89378e-26 -2.16804e-26 -2.32683e-26 -2.29323e-26 -1.97544e-26 -1.26914e-26 -6.16179e-28 1.76256e-26 4.31429e-26 7.69145e-26 1.19696e-25 1.71923e-25 2.3362e-25 3.04314e-25 3.82975e-25 4.67969e-25 5.57044e-25 6.47352e-25 7.35501e-25 8.17637e-25 8.89566e-25 9.46891e-25 9.85184e-25 1.00015e-24 9.87816e-25 9.44691e-25 8.67935e-25 7.55494e-25 6.062e-25 4.19855e-25 1.97263e-25 -5.97665e-26 -3.48453e-25 -6.65114e-25 -1.00526e-24 -1.36371e-24 -1.73475e-24 -2.11226e-24 -2.48987e-24 -2.86113e-24 -3.21964e-24 -3.55923e-24 -3.87403e-24 -4.15863e-24 -4.40814e-24 -4.6183e-24 -4.78556e-24 -4.90708e-24 -4.98081e-24 -5.00553e-24 -4.98081e-24 -4.90708e-24 -4.78556e-24 -4.6183e-24 -4.40814e-24 -4.15863e-24 -3.87403e-24 -3.55923e-24 -3.21964e-24 -2.86113e-24 -2.48987e-24 -2.11226e-24 -1.73475e-24 -1.36371e-24 -1.00526e-24 -6.65114e-25 -3.48453e-25 -5.97665e-26 1.97263e-25 4.19855e-25 6.062e-25 7.55494e-25 8.67935e-25 9.44691e-25 9.87816e-25 1.00015e-24 9.85184e-25 9.46891e-25 8.89566e-25 8.17637e-25 7.35501e-25 6.47352e-25 5.57044e-25 4.67969e-25 3.82975e-25 3.04314e-25 2.3362e-25 1.71923e-25 1.19696e-25 7.69145e-26 4.31429e-26 1.76256e-26 -6.16179e-28 -1.26914e-26 -1.97544e-26 -2.29323e-26 -2.32683e-26 -2.16804e-26 -1.89378e-26 -1.56505e-26 -1.22733e-26 -9.11811e-27 -6.37408e-27 -4.13099e-27 -2.40369e-27 -1.15556e-27 -3.18981e-28 1.8772e-28 4.47627e-28 5.36601e-28 5.18279e-28 4.42064e-28 3.43296e-28 2.44882e-28 1.59691e-28 9.31735e-29 4.58313e-29 1.52999e-29 -2.06919e-30 -1.0124e-29 -1.22682e-29 -1.1164e-29 -8.6755e-30 -5.95851e-30 -3.61866e-30 -1.88257e-30 -7.49456e-31 -1.0727e-31 1.89268e-31 2.73992e-31 2.4957e-31 1.83952e-31 1.1549e-31 6.12766e-32 2.53765e-32 5.30583e-33 -3.65531e-33 -6.07509e-33 -5.37584e-33 -3.68164e-33 -2.06747e-33 -9.20434e-34 -2.59551e-34 4.18677e-35 1.30718e-34 1.20373e-34 7.96605e-35 4.14045e-35 1.59788e-35 2.83328e-36 -2.12864e-36 -2.89021e-36 -2.10815e-36 -1.13293e-36 -4.44993e-37 -8.80776e-38 4.3457e-38 6.25978e-38 4.34287e-38 2.12671e-38 7.01975e-39 5.44909e-40 -1.29422e-39 -1.19922e-39 -6.62926e-40 -2.47747e-40 -4.17699e-41 2.4064e-41 2.79185e-41 1.59185e-41 5.87786e-42 9.67363e-43 -5.15745e-43 -5.63499e-43 -2.93347e-43 -9.55084e-44 -1.36441e-44 -0 0 0 0 0 0 0 0 0 0 0 0 0 0 0 0 0 0 0 0 0 0 0 0 0 0 0 0 0 0 0 0 0 0 0 0 0 0 0 0 0 0 0 0 0 0 0 0 0 0 0 0 0 0 0 0 0 0 0 0 0 0 0 0 0 0 0 0 0 0 0 0 0 0 0 0 0 0 0 0 0 0 0 0 0 0 0 0 0 0 0 0 0 0 0 0 0 0 0 0 0 0 0 0 0 0 0 0 0 0 0 0 0 0 0 0 0 0 0 0 0 0 0 0 0 0 0 0 0 0 0 0 0 0 0 0 0 0 0 0 0 0 0 0 0 0 0 0 0 0 0 0 0 0 0 0 0 0 0 0 0 0 0 0 0 0 0 0 0 0 0 0 
0 0 0 0 0 0 0 0 0 0 0 0 0 0 0 0 0 0 0 0 0 0 0 0 0 0 0 0 0 0 0 0 0 0 0 0 0 0 0 0 0 0 0 0 0 0 0 0 0 0 0 0 0 0 0 0 0 0 0 0 0 0 0 0 0 0 0 0 0 0 0 0 0 0 0 0 0 0 0 0 0 0 0 0 0 0 0 0 0 0 0 0 0 0 0 0 0 0 0 0 0 0 0 0 0 0 0 0 0 0 0 0 0 0 0 0 0 0 0 0 0 0 0 0 0 0 0 0 0 0 0 0 0 0 0 0 0 0 0 0 0 0 0 0 0 0 0 0 0 0 0 0 0 0 0 0 0 0 0 0 0 0 0 0 0 0 0 0 0 0 -0 -8.20676e-45 -7.52287e-44 -2.68088e-43 -5.79945e-43 -6.77058e-43 5.22497e-43 5.12376e-42 1.53494e-41 2.90246e-41 2.90738e-41 -3.26274e-41 -2.42614e-40 -6.85299e-40 -1.28015e-39 -1.41769e-39 5.81288e-40 7.81004e-39 2.3852e-38 4.85847e-38 6.82533e-38 3.91033e-38 -1.29363e-37 -5.70722e-37 -1.39422e-36 -2.48891e-36 -3.14036e-36 -1.48139e-36 5.98284e-36 2.41297e-35 5.70552e-35 1.02325e-34 1.40146e-34 1.17693e-34 -6.66999e-35 -5.66716e-34 -1.55454e-33 -3.1153e-33 -5.03052e-33 -6.4286e-33 -5.33582e-33 1.7286e-33 1.9797e-32 5.46054e-32 1.10125e-31 1.83688e-31 2.58189e-31 2.91681e-31 2.06241e-31 -1.19527e-31 -8.46874e-31 -2.15139e-30 -4.16251e-30 -6.85542e-30 -9.8878e-30 -1.23863e-29 -1.27085e-29 -8.23618e-30 4.70715e-30 3.06832e-29 7.4548e-29 1.4027e-28 2.29008e-28 3.36379e-28 4.48983e-28 5.40444e-28 5.67536e-28 4.67202e-28 1.55639e-28 -4.69168e-28 -1.51995e-27 -3.10624e-27 -5.31298e-27 -8.17116e-27 -1.16209e-26 -1.5469e-26 -1.93435e-26 -2.26506e-26 -2.45396e-26 -2.38825e-26 -1.92762e-26 -9.07419e-27 8.54592e-27 3.54755e-26 7.35277e-26 1.24252e-25 1.88715e-25 2.67269e-25 3.593e-25 4.63003e-25 5.75176e-25 6.91073e-25 8.04317e-25 9.06911e-25 9.89326e-25 1.04071e-24 1.04917e-24 1.00219e-24 8.87044e-25 6.91359e-25 4.03623e-25 1.37311e-26 -4.86505e-25 -1.10293e-24 -1.83866e-24 -2.69389e-24 -3.66572e-24 -4.74818e-24 -5.93235e-24 -7.20667e-24 -8.55722e-24 -9.96823e-24 -1.14225e-23 -1.29022e-23 -1.43888e-23 -1.58645e-23 -1.73117e-23 -1.87143e-23 -2.00575e-23 -2.13279e-23 -2.25143e-23 -2.36071e-23 -2.45985e-23 -2.54825e-23 -2.62545e-23 -2.69113e-23 -2.74506e-23 -2.7871e-23 -2.81716e-23 -2.83522e-23 -2.84124e-23 -2.83522e-23 -2.81716e-23 -2.7871e-23 -2.74506e-23 -2.69113e-23 -2.62545e-23 -2.54825e-23 -2.45985e-23 -2.36071e-23 -2.25143e-23 -2.13279e-23 -2.00575e-23 -1.87143e-23 -1.73117e-23 -1.58645e-23 -1.43888e-23 -1.29022e-23 -1.14225e-23 -9.96823e-24 -8.55722e-24 -7.20667e-24 -5.93235e-24 -4.74818e-24 -3.66572e-24 -2.69389e-24 -1.83866e-24 -1.10293e-24 -4.86505e-25 1.37311e-26 4.03623e-25 6.91359e-25 8.87044e-25 1.00219e-24 1.04917e-24 1.04071e-24 9.89326e-25 9.06911e-25 8.04317e-25 6.91073e-25 5.75176e-25 4.63003e-25 3.593e-25 2.67269e-25 1.88715e-25 1.24252e-25 7.35277e-26 3.54755e-26 8.54592e-27 -9.07419e-27 -1.92762e-26 -2.38825e-26 -2.45396e-26 -2.26506e-26 -1.93435e-26 -1.5469e-26 -1.16209e-26 -8.17116e-27 -5.31298e-27 -3.10624e-27 -1.51995e-27 -4.69168e-28 1.55639e-28 4.67202e-28 5.67536e-28 5.40444e-28 4.48983e-28 3.36379e-28 2.29008e-28 1.4027e-28 7.4548e-29 3.06832e-29 4.70715e-30 -8.23618e-30 -1.27085e-29 -1.23863e-29 -9.8878e-30 -6.85542e-30 -4.16251e-30 -2.15139e-30 -8.46874e-31 -1.19527e-31 2.06241e-31 2.91681e-31 2.58189e-31 1.83688e-31 1.10125e-31 5.46054e-32 1.9797e-32 1.7286e-33 -5.33582e-33 -6.4286e-33 -5.03052e-33 -3.1153e-33 -1.55454e-33 -5.66716e-34 -6.66999e-35 1.17693e-34 1.40146e-34 1.02325e-34 5.70552e-35 2.41297e-35 5.98284e-36 -1.48139e-36 -3.14036e-36 -2.48891e-36 -1.39422e-36 -5.70722e-37 -1.29363e-37 3.91033e-38 6.82533e-38 4.85847e-38 2.3852e-38 7.81004e-39 5.81288e-40 -1.41769e-39 -1.28015e-39 -6.85299e-40 -2.42614e-40 -3.26274e-41 2.90738e-41 2.90246e-41 1.53494e-41 5.12376e-42 5.22497e-43 -6.77058e-43 -5.79945e-43 -2.68088e-43 -7.52287e-44 -8.20676e-45 -0 0 0 0 0 0 0 0 0 0 0 0 0 0 0 0 0 0 0 0 0 0 0 0 0 0 0 0 0 0 0 0 0 0 0 0 0 0 0 0 0 0 0 0 0 0 0 0 0 0 0 0 0 0 0 0 0 0 0 0 0 0 0 0 0 0 0 0 0 0 0 0 0 0 0 0 0 0 0 0 0 0 0 0 0 0 0 0 0 0 0 0 0 0 0 0 0 0 0 0 0 0 0 0 0 0 0 0 0 0 0 0 0 0 0 0 0 0 0 0 0 0 0 0 0 0 0 0 0 0 0 0 0 0 0 0 0 0 0 0 0 0 0 0 0 0 0 0 0 0 0 0 0 0 0 0 0 0 0 0 0 0 0 0 0 0 0 0 0 0 
0 0 0 0 0 0 0 0 0 0 0 0 0 0 0 0 0 0 0 0 0 0 0 0 0 0 0 0 0 0 0 0 0 0 0 0 0 0 0 0 0 0 0 0 0 0 0 0 0 0 0 0 0 0 0 0 0 0 0 0 0 0 0 0 0 0 0 0 0 0 0 0 0 0 0 0 0 0 0 0 0 0 0 0 0 0 0 0 0 0 0 0 0 0 0 0 0 0 0 0 0 0 0 0 0 0 0 0 0 0 0 0 0 0 0 0 0 0 0 0 0 0 0 0 0 0 0 0 0 0 0 0 0 0 0 0 0 0 0 0 0 0 0 0 0 0 0 0 0 0 0 0 0 0 0 0 0 0 0 0 0 0 0 0 0 0 0 0 0 -1.37103e-45 -5.347e-44 -2.26219e-43 -5.6212e-43 -8.11647e-43 -1.78233e-44 4.06098e-42 1.43958e-41 3.04176e-41 3.68724e-41 -1.55858e-41 -2.24234e-40 -6.99863e-40 -1.39472e-39 -1.68453e-39 2.9646e-40 8.15917e-39 2.63115e-38 5.50239e-38 7.82504e-38 4.30481e-38 -1.6171e-37 -6.99807e-37 -1.69699e-36 -2.97784e-36 -3.55381e-36 -9.0697e-37 9.56059e-36 3.39484e-35 7.6401e-35 1.30441e-34 1.63289e-34 9.44875e-35 -2.22382e-34 -9.93152e-34 -2.41298e-33 -4.47941e-33 -6.63746e-33 -7.24758e-33 -2.97753e-33 1.15777e-32 4.34502e-32 9.91003e-32 1.79313e-31 2.70172e-31 3.29932e-31 2.7357e-31 -3.99119e-32 -8.07635e-31 -2.25535e-30 -4.56275e-30 -7.7211e-30 -1.13092e-29 -1.41914e-29 -1.4174e-29 -7.70659e-30 1.02239e-29 4.57877e-29 1.05323e-28 1.93369e-28 3.09473e-28 4.43668e-28 5.70798e-28 6.44254e-28 5.90246e-28 3.04328e-28 -3.47506e-28 -1.52035e-27 -3.37162e-27 -6.02923e-27 -9.54513e-27 -1.38339e-26 -1.85986e-26 -2.32495e-26 -2.6824e-26 -2.79198e-26 -2.46568e-26 -1.46856e-26 4.74223e-27 3.66226e-26 8.39572e-26 1.49414e-25 2.34896e-25 3.41025e-25 4.66584e-25 6.07921e-25 7.58406e-25 9.0795e-25 1.04267e-24 1.14475e-24 1.19255e-24 1.16093e-24 1.02198e-24 7.45922e-25 3.02346e-25 -3.38368e-25 -1.20346e-24 -2.31618e-24 -3.69417e-24 -5.348e-24 -7.27998e-24 -9.48327e-24 -1.19414e-23 -1.46282e-23 -1.75083e-23 -2.05382e-23 -2.36671e-23 -2.68395e-23 -2.99965e-23 -3.30781e-23 -3.60261e-23 -3.87856e-23 -4.13078e-23 -4.35514e-23 -4.54842e-23 -4.70848e-23 -4.83424e-23 -4.92579e-23 -4.9843e-23 -5.01199e-23 -5.01201e-23 -4.98827e-23 -4.94533e-23 -4.88813e-23 -4.82186e-23 -4.75167e-23 -4.68255e-23 -4.61906e-23 -4.56522e-23 -4.52431e-23 -4.49877e-23 -4.49008e-23 -4.49877e-23 -4.52431e-23 -4.56522e-23 -4.61906e-23 -4.68255e-23 -4.75167e-23 -4.82186e-23 -4.88813e-23 -4.94533e-23 -4.98827e-23 -5.01201e-23 -5.01199e-23 -4.9843e-23 -4.92579e-23 -4.83424e-23 -4.70848e-23 -4.54842e-23 -4.35514e-23 -4.13078e-23 -3.87856e-23 -3.60261e-23 -3.30781e-23 -2.99965e-23 -2.68395e-23 -2.36671e-23 -2.05382e-23 -1.75083e-23 -1.46282e-23 -1.19414e-23 -9.48327e-24 -7.27998e-24 -5.348e-24 -3.69417e-24 -2.31618e-24 -1.20346e-24 -3.38368e-25 3.02346e-25 7.45922e-25 1.02198e-24 1.16093e-24 1.19255e-24 1.14475e-24 1.04267e-24 9.0795e-25 7.58406e-25 6.07921e-25 4.66584e-25 3.41025e-25 2.34896e-25 1.49414e-25 8.39572e-26 3.66226e-26 4.74223e-27 -1.46856e-26 -2.46568e-26 -2.79198e-26 -2.6824e-26 -2.32495e-26 -1.85986e-26 -1.38339e-26 -9.54513e-27 -6.02923e-27 -3.37162e-27 -1.52035e-27 -3.47506e-28 3.04328e-28 5.90246e-28 6.44254e-28 5.70798e-28 4.43668e-28 3.09473e-28 1.93369e-28 1.05323e-28 4.57877e-29 1.02239e-29 -7.70659e-30 -1.4174e-29 -1.41914e-29 -1.13092e-29 -7.7211e-30 -4.56275e-30 -2.25535e-30 -8.07635e-31 -3.99119e-32 2.7357e-31 3.29932e-31 2.70172e-31 1.79313e-31 9.91003e-32 4.34502e-32 1.15777e-32 -2.97753e-33 -7.24758e-33 -6.63746e-33 -4.47941e-33 -2.41298e-33 -9.93152e-34 -2.22382e-34 9.44875e-35 1.63289e-34 1.30441e-34 7.6401e-35 3.39484e-35 9.56059e-36 -9.0697e-37 -3.55381e-36 -2.97784e-36 -1.69699e-36 -6.99807e-37 -1.6171e-37 4.30481e-38 7.82504e-38 5.50239e-38 2.63115e-38 8.15917e-39 2.9646e-40 -1.68453e-39 -1.39472e-39 -6.99863e-40 -2.24234e-40 -1.55858e-41 3.68724e-41 3.04176e-41 1.43958e-41 4.06098e-42 -1.78233e-44 -8.11647e-43 -5.6212e-43 -2.26219e-43 -5.347e-44 -1.37103e-45 0 0 0 0 0 0 0 0 0 0 0 0 0 0 0 0 0 0 0 0 0 0 0 0 0 0 0 0 0 0 0 0 0 0 0 0 0 0 0 0 0 0 0 0 0 0 0 0 0 0 0 0 0 0 0 0 0 0 0 0 0 0 0 0 0 0 0 0 0 0 0 0 0 0 0 0 0 0 0 0 0 0 0 0 0 0 0 0 0 0 0 0 0 0 0 0 0 0 0 0 0 0 0 0 0 0 0 0 0 0 0 0 0 0 0 0 0 0 0 0 0 0 0 0 0 0 0 0 0 0 0 0 0 0 0 0 0 0 0 0 0 0 0 0 0 0 0 0 0 0 0 0 0 0 0 0 0 0 0 0 0 0 0 0 0 0 0 0 
0 0 0 0 0 0 0 0 0 0 0 0 0 0 0 0 0 0 0 0 0 0 0 0 0 0 0 0 0 0 0 0 0 0 0 0 0 0 0 0 0 0 0 0 0 0 0 0 0 0 0 0 0 0 0 0 0 0 0 0 0 0 0 0 0 0 0 0 0 0 0 0 0 0 0 0 0 0 0 0 0 0 0 0 0 0 0 0 0 0 0 0 0 0 0 0 0 0 0 0 0 0 0 0 0 0 0 0 0 0 0 0 0 0 0 0 0 0 0 0 0 0 0 0 0 0 0 0 0 0 0 0 0 0 0 0 0 0 0 0 0 0 0 0 0 0 0 0 0 0 0 0 0 0 0 0 0 0 0 0 0 0 0 0 0 0 0 -0 -3.02302e-44 -1.70388e-43 -4.97423e-43 -9.02782e-43 -5.49639e-43 2.73583e-42 1.24974e-41 3.01175e-41 4.35507e-41 5.67228e-42 -1.87606e-40 -6.747e-40 -1.45999e-39 -1.95896e-39 -2.09275e-40 7.84741e-39 2.75499e-38 6.00942e-38 8.82782e-38 5.14212e-38 -1.81684e-37 -8.07427e-37 -1.97441e-36 -3.44846e-36 -3.95582e-36 -2.73845e-37 1.34054e-35 4.44788e-35 9.68614e-35 1.58689e-34 1.80715e-34 4.84283e-35 -4.37328e-34 -1.53683e-33 -3.44627e-33 -5.99513e-33 -8.10501e-33 -7.0345e-33 2.36557e-33 2.78176e-32 7.81699e-32 1.58847e-31 2.6255e-31 3.54174e-31 3.50924e-31 1.02587e-31 -6.16773e-31 -2.08647e-30 -4.55907e-30 -8.09139e-30 -1.2261e-29 -1.57648e-29 -1.59422e-29 -8.33949e-30 1.34672e-29 5.74606e-29 1.31749e-28 2.4164e-28 3.84799e-28 5.44352e-28 6.80219e-28 7.19746e-28 5.49679e-28 1.26415e-29 -1.08755e-27 -2.96659e-27 -5.82106e-27 -9.7658e-27 -1.47449e-26 -2.04176e-26 -2.60252e-26 -3.02532e-26 -3.1109e-26 -2.58435e-26 -1.09522e-26 1.77069e-26 6.46404e-26 1.34259e-25 2.30214e-25 3.54518e-25 5.06497e-25 6.81591e-25 8.70122e-25 1.0561e-24 1.21626e-24 1.31936e-24 1.32605e-24 1.18932e-24 8.55654e-25 2.67005e-25 -6.36453e-25 -1.91283e-24 -3.61445e-24 -5.78334e-24 -8.4466e-24 -1.16119e-23 -1.52634e-23 -1.93587e-23 -2.38263e-23 -2.85652e-23 -3.34452e-23 -3.83096e-23 -4.29783e-23 -4.7254e-23 -5.09279e-23 -5.37878e-23 -5.5626e-23 -5.62478e-23 -5.54793e-23 -5.31755e-23 -4.92267e-23 -4.35637e-23 -3.61622e-23 -2.70444e-23 -1.62802e-23 -3.98567e-24 9.6797e-24 2.45167e-23 4.02921e-23 5.67445e-23 7.3592e-23 9.05381e-23 1.0728e-22 1.23516e-22 1.38952e-22 1.53307e-22 1.66319e-22 1.77754e-22 1.87405e-22 1.95096e-22 2.00691e-22 2.04088e-22 2.05227e-22 2.04088e-22 2.00691e-22 1.95096e-22 1.87405e-22 1.77754e-22 1.66319e-22 1.53307e-22 1.38952e-22 1.23516e-22 1.0728e-22 9.05381e-23 7.3592e-23 5.67445e-23 4.02921e-23 2.45167e-23 9.6797e-24 -3.98567e-24 -1.62802e-23 -2.70444e-23 -3.61622e-23 -4.35637e-23 -4.92267e-23 -5.31755e-23 -5.54793e-23 -5.62478e-23 -5.5626e-23 -5.37878e-23 -5.09279e-23 -4.7254e-23 -4.29783e-23 -3.83096e-23 -3.34452e-23 -2.85652e-23 -2.38263e-23 -1.93587e-23 -1.52634e-23 -1.16119e-23 -8.4466e-24 -5.78334e-24 -3.61445e-24 -1.91283e-24 -6.36453e-25 2.67005e-25 8.55654e-25 1.18932e-24 1.32605e-24 1.31936e-24 1.21626e-24 1.0561e-24 8.70122e-25 6.81591e-25 5.06497e-25 3.54518e-25 2.30214e-25 1.34259e-25 6.46404e-26 1.77069e-26 -1.09522e-26 -2.58435e-26 -3.1109e-26 -3.02532e-26 -2.60252e-26 -2.04176e-26 -1.47449e-26 -9.7658e-27 -5.82106e-27 -2.96659e-27 -1.08755e-27 1.26415e-29 5.49679e-28 7.19746e-28 6.80219e-28 5.44352e-28 3.84799e-28 2.4164e-28 1.31749e-28 5.74606e-29 1.34672e-29 -8.33949e-30 -1.59422e-29 -1.57648e-29 -1.2261e-29 -8.09139e-30 -4.55907e-30 -2.08647e-30 -6.16773e-31 1.02587e-31 3.50924e-31 3.54174e-31 2.6255e-31 1.58847e-31 7.81699e-32 2.78176e-32 2.36557e-33 -7.0345e-33 -8.10501e-33 -5.99513e-33 -3.44627e-33 -1.53683e-33 -4.37328e-34 4.84283e-35 1.80715e-34 1.58689e-34 9.68614e-35 4.44788e-35 1.34054e-35 -2.73845e-37 -3.95582e-36 -3.44846e-36 -1.97441e-36 -8.07427e-37 -1.81684e-37 5.14212e-38 8.82782e-38 6.00942e-38 2.75499e-38 7.84741e-39 -2.09275e-40 -1.95896e-39 -1.45999e-39 -6.747e-40 -1.87606e-40 5.67228e-42 4.35507e-41 3.01175e-41 1.24974e-41 2.73583e-42 -5.49639e-43 -9.02782e-43 -4.97423e-43 -1.70388e-43 -3.02302e-44 -0 0 0 0 0 0 0 0 0 0 0 0 0 0 0 0 0 0 0 0 0 0 0 0 0 0 0 0 0 0 0 0 0 0 0 0 0 0 0 0 0 0 0 0 0 0 0 0 0 0 0 0 0 0 0 0 0 0 0 0 0 0 0 0 0 0 0 0 0 0 0 0 0 0 0 0 0 0 0 0 0 0 0 0 0 0 0 0 0 0 0 0 0 0 0 0 0 0 0 0 0 0 0 0 0 0 0 0 0 0 0 0 0 0 0 0 0 0 0 0 0 0 0 0 0 0 0 0 0 0 0 0 0 0 0 0 0 0 0 0 0 0 0 0 0 0 0 0 0 0 0 0 0 0 0 0 0 0 0 0 0 0 0 0 0 0 0 
0 0 0 0 0 0 0 0 0 0 0 0 0 0 0 0 0 0 0 0 0 0 0 0 0 0 0 0 0 0 0 0 0 0 0 0 0 0 0 0 0 0 0 0 0 0 0 0 0 0 0 0 0 0 0 0 0 0 0 0 0 0 0 0 0 0 0 0 0 0 0 0 0 0 0 0 0 0 0 0 0 0 0 0 0 0 0 0 0 0 0 0 0 0 0 0 0 0 0 0 0 0 0 0 0 0 0 0 0 0 0 0 0 0 0 0 0 0 0 0 0 0 0 0 0 0 0 0 0 0 0 0 0 0 0 0 0 0 0 0 0 0 0 0 0 0 0 0 0 0 0 0 0 0 0 0 0 0 0 0 0 0 0 0 0 -0 -8.26206e-45 -1.08784e-43 -4.08972e-43 -8.86795e-43 -9.72169e-43 1.3536e-42 9.8828e-42 2.78996e-41 4.77162e-41 2.77991e-41 -1.36991e-40 -6.09473e-40 -1.46047e-39 -2.20156e-39 -8.88436e-40 6.85463e-39 2.73358e-38 6.32542e-38 9.78e-38 6.50614e-38 -1.84123e-37 -8.80396e-37 -2.20518e-36 -3.88488e-36 -4.3785e-36 2.53414e-37 1.7101e-35 5.49527e-35 1.17356e-34 1.86039e-34 1.92329e-34 -1.79932e-35 -7.03519e-34 -2.1783e-33 -4.61034e-33 -7.56446e-33 -9.2243e-33 -5.38278e-33 1.13736e-32 5.13117e-32 1.24367e-31 2.31897e-31 3.51246e-31 4.12605e-31 2.71751e-31 -3.10273e-31 -1.6587e-30 -4.11353e-30 -7.85118e-30 -1.25564e-29 -1.69244e-29 -1.80295e-29 -1.0698e-29 1.28291e-29 6.2481e-29 1.4855e-28 2.77756e-28 4.46518e-28 6.31117e-28 7.75207e-28 7.76344e-28 4.74902e-28 -3.49233e-28 -1.9648e-27 -4.65326e-27 -8.63951e-27 -1.39819e-26 -2.04181e-26 -2.71715e-26 -3.27337e-26 -3.46521e-26 -2.93693e-26 -1.21729e-26 2.26703e-26 8.15182e-26 1.70622e-25 2.95004e-25 4.56922e-25 6.53946e-25 8.76728e-25 1.10663e-24 1.31346e-24 1.4535e-24 1.46841e-24 1.28504e-24 8.16824e-25 -3.31652e-26 -1.36719e-24 -3.28582e-24 -5.87902e-24 -9.21566e-24 -1.33318e-23 -1.82189e-23 -2.38117e-23 -2.99785e-23 -3.65124e-23 -4.3127e-23 -4.94546e-23 -5.505e-23 -5.93988e-23 -6.19297e-23 -6.2032e-23 -5.90766e-23 -5.244e-23 -4.15288e-23 -2.5807e-23 -4.81896e-24 2.17866e-23 5.42391e-23 9.2631e-23 1.3691e-22 1.86876e-22 2.42184e-22 3.02351e-22 3.66773e-22 4.34742e-22 5.05467e-22 5.78097e-22 6.51744e-22 7.25513e-22 7.98517e-22 8.69906e-22 9.38874e-22 1.00468e-21 1.06666e-21 1.12423e-21 1.17686e-21 1.22415e-21 1.26573e-21 1.30133e-21 1.33072e-21 1.35373e-21 1.37024e-21 1.38018e-21 1.3835e-21 1.38018e-21 1.37024e-21 1.35373e-21 1.33072e-21 1.30133e-21 1.26573e-21 1.22415e-21 1.17686e-21 1.12423e-21 1.06666e-21 1.00468e-21 9.38874e-22 8.69906e-22 7.98517e-22 7.25513e-22 6.51744e-22 5.78097e-22 5.05467e-22 4.34742e-22 3.66773e-22 3.02351e-22 2.42184e-22 1.86876e-22 1.3691e-22 9.2631e-23 5.42391e-23 2.17866e-23 -4.81896e-24 -2.5807e-23 -4.15288e-23 -5.244e-23 -5.90766e-23 -6.2032e-23 -6.19297e-23 -5.93988e-23 -5.505e-23 -4.94546e-23 -4.3127e-23 -3.65124e-23 -2.99785e-23 -2.38117e-23 -1.82189e-23 -1.33318e-23 -9.21566e-24 -5.87902e-24 -3.28582e-24 -1.36719e-24 -3.31652e-26 8.16824e-25 1.28504e-24 1.46841e-24 1.4535e-24 1.31346e-24 1.10663e-24 8.76728e-25 6.53946e-25 4.56922e-25 2.95004e-25 1.70622e-25 8.15182e-26 2.26703e-26 -1.21729e-26 -2.93693e-26 -3.46521e-26 -3.27337e-26 -2.71715e-26 -2.04181e-26 -1.39819e-26 -8.63951e-27 -4.65326e-27 -1.9648e-27 -3.49233e-28 4.74902e-28 7.76344e-28 7.75207e-28 6.31117e-28 4.46518e-28 2.77756e-28 1.4855e-28 6.2481e-29 1.28291e-29 -1.0698e-29 -1.80295e-29 -1.69244e-29 -1.25564e-29 -7.85118e-30 -4.11353e-30 -1.6587e-30 -3.10273e-31 2.71751e-31 4.12605e-31 3.51246e-31 2.31897e-31 1.24367e-31 5.13117e-32 1.13736e-32 -5.38278e-33 -9.2243e-33 -7.56446e-33 -4.61034e-33 -2.1783e-33 -7.03519e-34 -1.79932e-35 1.92329e-34 1.86039e-34 1.17356e-34 5.49527e-35 1.7101e-35 2.53414e-37 -4.3785e-36 -3.88488e-36 -2.20518e-36 -8.80396e-37 -1.84123e-37 6.50614e-38 9.78e-38 6.32542e-38 2.73358e-38 6.85463e-39 -8.88436e-40 -2.20156e-39 -1.46047e-39 -6.09473e-40 -1.36991e-40 2.77991e-41 4.77162e-41 2.78996e-41 9.8828e-42 1.3536e-42 -9.72169e-43 -8.86795e-43 -4.08972e-43 -1.08784e-43 -8.26206e-45 -0 0 0 0 0 0 0 0 0 0 0 0 0 0 0 0 0 0 0 0 0 0 0 0 0 0 0 0 0 0 0 0 0 0 0 0 0 0 0 0 0 0 0 0 0 0 0 0 0 0 0 0 0 0 0 0 0 0 0 0 0 0 0 0 0 0 0 0 0 0 0 0 0 0 0 0 0 0 0 0 0 0 0 0 0 0 0 0 0 0 0 0 0 0 0 0 0 0 0 0 0 0 0 0 0 0 0 0 0 0 0 0 0 0 0 0 0 0 0 0 0 0 0 0 0 0 0 0 0 0 0 0 0 0 0 0 0 0 0 0 0 0 0 0 0 0 0 0 0 0 0 0 0 0 0 0 0 0 0 0 0 0 0 0 0 