<?xml version="1.0"?>
<VTKFile type="ImageData" version="0.1" byte_order="LittleEndian">
<ImageData WholeExtent="0 599 0 599 0 0" Origin="0 0 0" Spacing="5 5 0">
<Piece Extent="0 599 0 599 0 0">
<PointData Scalars="Amplitude">
<DataArray type="Float32" Name="Amplitude" format="ascii">
0 0 0 0 0 0 0 0 0 0 0 0 0 0 0 0 0 0 0 0 0 0 0 0 0 0 0 0 0 0 0 0 0 0 0 0 0 0 0 0 0 0 0 0 0 0 0 0 0 0 0 0 0 0 0 0 0 0 0 0 0 0 0 0 0 0 0 0 0 0 0 0 0 0 0 0 0 0 0 0 0 0 0 0 0 0 0 0 0 0 0 0 0 0 0 0 0 0 0 0 0 0 0 0 0 0 0 0 0 0 0 0 0 0 0 0 0 0 0 0 0 0 0 0 0 0 0 0 0 0 0 0 0 0 0 0 0 0 0 0 0 0 0 0 0 0 0 0 0 0 0 0 0 0 0 0 0 0 0 0 0 0 0 0 0 0 0 0 0 0 0 0 0 0 0 0 0 0 0 0 0 0 0 0 0 0 0 0 0 0 0 0 0 0 0 0 0 0 0 0 0 0 0 0 0 0 0 0 0 0 0 0 0 0 0 0 0 0 0 0 0 0 0 0 0 0 0 0 0 0 0 0 0 0 0 0 0 0 0 0 0 0 0 0 0 0 0 0 0 0 0 0 0 0 0 0 0 0 0 0 0 0 0 0 0 0 0 0 0 0 0 0 0 0 0 0 0 0 0 0 0 0 0 0 0 0 0 0 0 0 0 0 0 0 0 0 0 0 0 0 0 0 0 0 0 0 0 0 0 0 0 0 0 0 0 0 0 0 0 0 0 0 0 0 0 0 0 0 0 0 0 0 0 0 0 0 0 0 0 0 0 0 0 0 0 0 0 0 0 0 0 0 0 0 0 0 0 0 0 0 0 0 0 0 0 0 0 0 0 0 0 0 0 0 0 0 0 0 0 0 0 0 0 0 0 0 0 0 0 0 0 0 0 0 0 0 0 0 0 0 0 0 0 0 0 0 0 0 0 0 0 0 0 0 0 0 0 0 0 0 0 0 0 0 0 0 0 0 0 0 0 0 0 0 0 0 0 0 0 0 0 0 0 0 0 0 0 0 0 0 0 0 0 0 0 0 0 0 0 0 0 0 0 0 0 0 0 0 0 0 0 0 0 0 0 0 0 0 0 0 0 0 0 0 0 0 0 0 0 0 0 0 0 0 0 0 0 0 0 0 0 0 0 0 0 0 0 0 0 0 0 0 0 0 0 0 0 0 0 0 0 0 0 0 0 0 0 0 0 0 0 0 0 0 0 0 0 0 0 0 0 0 0 0 0 0 0 0 0 0 0 0 0 0 0 0 0 0 0 0 0 0 0 0 0 0 0 0 0 0 0 0 0 0 0 0 0 0 0 0 0 0 0 0 0 0 0 0 0 0 0 0 0 0 0 0 0 0 0 0 
0 0 0 0 0 0 0 0 0 0 0 0 0 0 0 0 0 0 0 0 0 0 0 0 0 0 0 0 0 0 0 0 0 0 0 0 0 0 0 0 0 0 0 0 0 0 0 0 0 0 0 0 0 0 0 0 0 0 0 0 0 0 0 0 0 0 0 0 0 0 0 0 0 0 0 0 0 0 0 0 0 0 0 0 0 0 0 0 0 0 0 0 0 0 0 0 0 0 0 0 0 0 0 0 0 0 0 0 0 0 0 0 0 0 0 0 0 0 0 0 0 0 0 0 0 0 0 0 0 0 0 0 0 0 0 0 0 0 0 0 0 0 0 0 0 0 0 0 0 0 0 0 0 0 0 0 0 0 0 0 0 0 0 0 0 0 0 0 0 0 0 0 0 0 0 0 0 0 0 0 0 0 0 0 0 0 0 0 0 0 0 0 0 0 0 0 0 0 0 0 0 0 0 0 0 0 0 0 0 0 0 0 0 0 0 0 0 0 0 0 0 0 0 0 0 0 0 0 0 0 0 0 0 0 0 0 0 0 0 0 0 0 0 0 0 0 0 0 0 0 0 0 0 0 0 0 0 0 0 0 0 0 0 0 0 0 0 0 0 0 0 0 0 0 0 0 0 0 0 0 0 0 0 0 0 0 0 0 0 0 0 0 0 0 0 0 0 0 0 0 0 0 0 0 0 0 0 0 0 0 0 0 0 0 0 0 0 0 0 0 0 0 0 0 0 0 0 0 0 0 0 0 0 0 0 0 0 0 0 0 0 0 0 0 0 0 0 0 0 0 0 0 0 0 0 0 0 0 0 0 0 0 0 0 0 0 0 0 0 0 0 0 0 0 0 0 0 0 0 0 0 0 0 0 0 0 0 0 0 0 0 0 0 0 0 0 0 0 0 0 0 0 0 0 0 0 0 0 0 0 0 0 0 0 0 0 0 0 0 0 0 0 0 0 0 0 0 0 0 0 0 0 0 0 0 0 0 0 0 0 0 0 0 0 0 0 0 0 0 0 0 0 0 0 0 0 0 0 0 0 0 0 0 0 0 0 0 0 0 0 0 0 0 0 0 0 0 0 0 0 0 0 0 0 0 0 0 0 0 0 0 0 0 0 0 0 0 0 0 0 0 0 0 0 0 0 0 0 0 0 0 0 0 0 0 0 0 0 0 0 0 0 0 0 0 0 0 0 0 0 0 0 0 0 0 0 0 0 0 0 0 0 0 0 0 0 0 0 0 0 0 0 0 0 0 0 0 0 0 0 0 0 0 0 0 0 0 0 0 0 0 0 0 0 0 0 0 0 0 0 0 0 0 0 0 0 0 0 0 0 0 0 0 0 0 0 0 0 0 0 
0 0 0 0 0 0 0 0 0 0 0 0 0 0 0 0 0 0 0 0 0 0 0 0 0 0 0 0 0 0 0 0 0 0 0 0 0 0 0 0 0 0 0 -0 0 0 0 -6.7858e-44 -6.33794e-43 -1.94753e-42 -8.63154e-43 1.52667e-41 6.09284e-41 6.62322e-41 -3.43344e-40 -1.81426e-39 -3.17256e-39 5.41716e-39 4.73988e-38 1.17394e-37 -5.6876e-39 -1.0367e-36 -3.5719e-36 -3.71399e-36 1.68417e-35 8.94381e-35 1.75298e-34 -1.06529e-34 -1.76274e-33 -5.32024e-33 -4.94563e-33 2.33285e-32 1.18625e-31 2.40438e-31 -3.11482e-32 -1.84701e-30 -6.21156e-30 -8.63278e-30 1.30538e-29 1.04446e-28 2.74888e-28 2.5997e-28 -8.99873e-28 -4.79894e-27 -1.08901e-26 -7.56646e-27 4.11754e-26 1.88234e-25 4.01993e-25 2.71895e-25 -1.40479e-24 -6.38305e-24 -1.39601e-23 -1.23269e-23 3.42337e-23 1.83201e-22 4.42595e-22 5.49182e-22 -4.08299e-22 -4.15633e-21 -1.2016e-20 -2.01968e-20 -1.01618e-20 6.14194e-20 2.52878e-19 5.63427e-19 7.38891e-19 -3.79321e-20 -3.3386e-18 -1.08624e-17 -2.17316e-17 -2.64538e-17 1.68976e-18 1.11084e-16 3.54416e-16 7.19787e-16 9.807e-16 4.74633e-16 -2.06651e-15 -8.30316e-15 -1.9107e-14 -3.17127e-14 -3.49099e-14 -3.45738e-15 1.04097e-13 3.35609e-13 7.10727e-13 1.14833e-12 1.35265e-12 6.81982e-13 -1.92633e-12 -7.83198e-12 -1.81581e-11 -3.26116e-11 -4.75032e-11 -5.30777e-11 -3.07729e-11 4.82276e-11 2.20899e-10 5.23729e-10 9.74252e-10 1.54027e-09 2.09647e-09 2.37195e-09 1.89784e-09 -2.99441e-11 -4.35136e-09 -1.21813e-08 -2.46609e-08 -4.26974e-08 -6.65764e-08 -9.54344e-08 -1.26585e-07 -1.54681e-07 -1.70686e-07 -1.60558e-07 -1.03536e-07 3.02273e-08 2.82962e-07 7.13943e-07 1.40599e-06 2.47433e-06 4.07843e-06 6.43721e-06 9.84821e-06 1.47109e-05 2.15543e-05 3.10689e-05 4.41423e-05 6.18986e-05 8.57401e-05 0.00011739 0.000158935 0.000212868 0.00028212 0.000370093 0.000480675 0.00061825 0.000787677 0.000994261 0.00124369 0.00154195 0.00189521 0.00230965 0.00279133 0.00334593 0.00397853 0.00469337 0.00549357 0.00638087 0.00735531 0.00841505 0.00955609 0.0107721 0.0120543 0.0133913 0.0147692 0.0161717 0.0175799 0.0189727 0.0203275 0.0216198 0.0228242 0.0239146 0.0248649 0.0256494 0.0262434 0.0266237 0.0267696 0.0266624 0.0262871 0.0256317 0.0246883 0.0234529 0.0219257 0.020111 0.0180174 0.0156572 0.0130469 0.0102064 0.0071585 0.00392898 0.000545764 -0.00296151 -0.00656185 -0.0102236 -0.0139151 -0.0176047 -0.0212617 -0.0248565 -0.0283611 -0.0317494 -0.0349976 -0.0380843 -0.0409904 -0.0436998 -0.046199 -0.0484774 -0.050527 -0.0523427 -0.0539218 -0.0552639 -0.056371 -0.0572471 -0.0578978 -0.0583308 -0.0585548 -0.0585799 -0.0584169 -0.0580779 -0.0575753 -0.0569217 -0.0561303 -0.0552141 -0.0541862 -0.0530592 -0.0518458 -0.050558 -0.0492077 -0.047806 -0.0463633 -0.0448896 -0.0433942 -0.0418858 -0.0403724 -0.0388612 -0.0373588 -0.0358714 -0.0344044 -0.0329626 -0.0315504 -0.0301714 -0.0288292 -0.0275263 -0.0262654 -0.0250481 -0.0238765 -0.0227516 -0.0216747 -0.0206465 -0.0196677 -0.0187385 -0.0178593 -0.01703 -0.0162506 -0.0155211 -0.0148411 -0.0142104 -0.0136284 -0.013095 -0.0126096 -0.0121718 -0.0117814 -0.0114379 -0.0111411 -0.0108904 -0.0106858 -0.0105269 -0.0104134 -0.0103454 -0.0103228 -0.0103454 -0.0104134 -0.0105269 -0.0106858 -0.0108904 -0.0111411 -0.0114379 -0.0117814 -0.0121718 -0.0126096 -0.013095 -0.0136284 -0.0142104 -0.0148411 -0.0155211 -0.0162506 -0.01703 -0.0178593 -0.0187385 -0.0196677 -0.0206465 -0.0216747 -0.0227516 -0.0238765 -0.0250481 -0.0262654 -0.0275263 -0.0288292 -0.0301714 -0.0315504 -0.0329626 -0.0344044 -0.0358714 -0.0373588 -0.0388612 -0.0403724 -0.0418858 -0.0433942 -0.0448896 -0.0463633 -0.047806 -0.0492077 -0.050558 -0.0518458 -0.0530592 -0.0541862 -0.0552141 -0.0561303 -0.0569217 -0.0575753 -0.0580779 -0.0584169 -0.0585799 -0.0585548 -0.0583308 -0.0578978 -0.0572471 -0.056371 -0.0552639 -0.0539218 -0.0523427 -0.050527 -0.0484774 -0.046199 -0.0436998 -0.0409904 -0.0380843 -0.0349976 -0.0317494 -0.0283611 -0.0248565 -0.0212617 -0.0176047 -0.0139151 -0.0102236 -0.00656185 -0.00296151 0.000545764 0.00392898 0.0071585 0.0102064 0.0130469 0.0156572 0.0180174 0.020111 0.0219257 0.0234529 0.0246883 0.0256317 0.0262871 0.0266624 0.0267696 0.0266237 0.0262434 0.0256494 0.0248649 0.0239146 0.0228242 0.0216198 0.0203275 0.0189727 0.0175799 0.0161717 0.0147692 0.0133913 0.0120543 0.0107721 0.00955609 0.00841505 0.00735531 0.00638087 0.00549357 0.00469337 0.00397853 0.00334593 0.00279133 0.00230965 0.00189521 0.00154195 0.00124369 0.000994261 0.000787677 0.00061825 0.000480675 0.000370093 0.00028212 0.000212868 0.000158935 0.00011739 8.57401e-05 6.18986e-05 4.41423e-05 3.10689e-05 2.15543e-05 1.47109e-05 9.84821e-06 6.43721e-06 4.07843e-06 2.47433e-06 1.40599e-06 7.13943e-07 2.82962e-07 3.02273e-08 -1.03536e-07 -1.60558e-07 -1.70686e-07 -1.54681e-07 -1.26585e-07 -9.54344e-08 -6.65764e-08 -4.26974e-08 -2.46609e-08 -1.21813e-08 -4.35136e-09 -2.99441e-11 1.89784e-09 2.37195e-09 2.09647e-09 1.54027e-09 9.74252e-10 5.23729e-10 2.20899e-10 4.82276e-11 -3.07729e-11 -5.30777e-11 -4.75032e-11 -3.26116e-11 -1.81581e-11 -7.83198e-12 -1.92633e-12 6.81982e-13 1.35265e-12 1.14833e-12 7.10727e-13 3.35609e-13 1.04097e-13 -3.45738e-15 -3.49099e-14 -3.17127e-14 -1.9107e-14 -8.30316e-15 -2.06651e-15 4.74633e-16 9.807e-16 7.19787e-16 3.54416e-16 1.11084e-16 1.68976e-18 -2.64538e-17 -2.17316e-17 -1.08624e-17 -3.3386e-18 -3.79321e-20 7.38891e-19 5.63427e-19 2.52878e-19 6.14194e-20 -1.01618e-20 -2.01968e-20 -1.2016e-20 -4.15633e-21 -4.08299e-22 5.49182e-22 4.42595e-22 1.83201e-22 3.42337e-23 -1.23269e-23 -1.39601e-23 -6.38305e-24 -1.40479e-24 2.71895e-25 4.01993e-25 1.88234e-25 4.11754e-26 -7.56646e-27 -1.08901e-26 -4.79894e-27 -8.99873e-28 2.5997e-28 2.74888e-28 1.04446e-28 1.30538e-29 -8.63278e-30 -6.21156e-30 -1.84701e-30 -3.11482e-32 2.40438e-31 1.18625e-31 2.33285e-32 -4.94563e-33 -5.32024e-33 -1.76274e-33 -1.06529e-34 1.75298e-34 8.94381e-35 1.68417e-35 -3.71399e-36 -3.5719e-36 -1.0367e-36 -5.6876e-39 1.17394e-37 4.73988e-38 5.41716e-39 -3.17256e-39 -1.81426e-39 -3.43344e-40 6.62322e-41 6.09284e-41 1.52667e-41 -8.63154e-43 -1.94753e-42 -6.33794e-43 -6.7858e-44 0 0 0 -0 0 0 0 0 0 0 0 0 0 0 0 0 0 0 0 0 0 0 0 0 0 0 0 0 0 0 0 0 0 0 0 0 0 0 0 0 0 0 0 0 0 0 
0 0 0 0 0 0 0 0 0 0 0 0 0 0 0 0 0 0 0 0 0 0 0 0 0 0 0 0 0 0 0 0 0 0 0 0 0 0 0 0 0 0 0 9.63371e-46 2.72451e-44 7.47099e-44 -3.96325e-44 -9.31789e-43 -3.10366e-42 -2.23933e-42 2.14218e-41 9.4914e-41 1.24076e-40 -4.67023e-40 -2.7878e-39 -5.39873e-39 6.64128e-39 7.18652e-38 1.91336e-37 3.40781e-38 -1.5465e-36 -5.68733e-36 -6.70572e-36 2.43112e-35 1.40361e-34 2.90807e-34 -1.19142e-34 -2.7343e-33 -8.59846e-33 -8.73981e-33 3.5462e-32 1.89731e-31 3.96297e-31 -1.73999e-32 -2.94075e-30 -1.01094e-29 -1.43705e-29 2.05386e-29 1.70177e-28 4.51614e-28 4.29379e-28 -1.48721e-27 -7.94047e-27 -1.79618e-26 -1.20186e-26 7.01231e-26 3.15542e-25 6.64479e-25 4.12406e-25 -2.47067e-24 -1.08584e-23 -2.32037e-23 -1.87603e-23 6.35054e-23 3.18227e-22 7.45417e-22 8.6531e-22 -9.1049e-22 -7.47664e-21 -2.07173e-20 -3.31168e-20 -1.12756e-20 1.19599e-19 4.53187e-19 9.63734e-19 1.16158e-18 -4.24905e-19 -6.48441e-18 -1.95973e-17 -3.71671e-17 -4.07016e-17 1.84057e-17 2.23288e-16 6.53722e-16 1.25431e-15 1.56392e-15 3.43296e-16 -4.64602e-15 -1.6086e-14 -3.47268e-14 -5.40568e-14 -5.18287e-14 1.88171e-14 2.30291e-13 6.57517e-13 1.30842e-12 1.98745e-12 2.09356e-12 4.08316e-13 -4.9768e-12 -1.63236e-11 -3.51222e-11 -5.97878e-11 -8.19898e-11 -8.19729e-11 -2.4206e-11 1.43931e-10 4.86178e-10 1.05872e-09 1.87327e-09 2.83813e-09 3.67816e-09 3.84163e-09 2.41235e-09 -1.94376e-09 -1.09583e-08 -2.66203e-08 -5.08694e-08 -8.508e-08 -1.29303e-07 -1.81238e-07 -2.34905e-07 -2.78974e-07 -2.94629e-07 -2.52806e-07 -1.10463e-07 1.94557e-07 7.50732e-07 1.68293e-06 3.16627e-06 5.44486e-06 8.85641e-06 1.38637e-05 2.10938e-05 3.13856e-05 4.58458e-05 6.59133e-05 9.34319e-05 0.000130729 0.000180698 0.000246889 0.000333588 0.000445904 0.000589835 0.000772326 0.0010013 0.00128567 0.00163528 0.00206086 0.00257388 0.00318636 0.00391064 0.00475905 0.00574355 0.0068753 0.00816418 0.00961829 0.0112434 0.0130424 0.0150147 0.017156 0.0194574 0.0219054 0.0244817 0.0271625 0.0299194 0.0327185 0.0355217 0.0382863 0.0409661 0.043512 0.0458731 0.0479972 0.0498322 0.0513271 0.0524333 0.0531053 0.0533024 0.0529889 0.0521357 0.0507207 0.0487295 0.0461557 0.0430013 0.0392766 0.0350001 0.0301985 0.0249057 0.0191627 0.0130165 0.00651938 -0.000272183 -0.00729833 -0.0144969 -0.0218048 -0.0291582 -0.0364945 -0.0437527 -0.0508741 -0.0578036 -0.06449 -0.0708864 -0.0769508 -0.0826468 -0.0879429 -0.0928133 -0.097238 -0.101202 -0.104696 -0.107716 -0.110262 -0.112338 -0.113953 -0.11512 -0.115855 -0.116174 -0.1161 -0.115654 -0.11486 -0.113743 -0.11233 -0.110645 -0.108716 -0.106569 -0.104228 -0.101719 -0.0990663 -0.0962928 -0.0934207 -0.0904707 -0.0874625 -0.0844146 -0.081344 -0.0782664 -0.0751961 -0.0721465 -0.069129 -0.0661543 -0.0632319 -0.0603701 -0.0575762 -0.0548567 -0.0522169 -0.0496614 -0.047194 -0.0448178 -0.0425354 -0.0403485 -0.0382587 -0.0362669 -0.0343736 -0.0325792 -0.0308835 -0.0292862 -0.0277867 -0.0263846 -0.0250791 -0.0238692 -0.022754 -0.0217324 -0.0208036 -0.0199666 -0.0192203 -0.0185642 -0.0179974 -0.017519 -0.0171284 -0.0168252 -0.0166089 -0.0164792 -0.016436 -0.0164792 -0.0166089 -0.0168252 -0.0171284 -0.017519 -0.0179974 -0.0185642 -0.0192203 -0.0199666 -0.0208036 -0.0217324 -0.022754 -0.0238692 -0.0250791 -0.0263846 -0.0277867 -0.0292862 -0.0308835 -0.0325792 -0.0343736 -0.0362669 -0.0382587 -0.0403485 -0.0425354 -0.0448178 -0.047194 -0.0496614 -0.0522169 -0.0548567 -0.0575762 -0.0603701 -0.0632319 -0.0661543 -0.069129 -0.0721465 -0.0751961 -0.0782664 -0.081344 -0.0844146 -0.0874625 -0.0904707 -0.0934207 -0.0962928 -0.0990663 -0.101719 -0.104228 -0.106569 -0.108716 -0.110645 -0.11233 -0.113743 -0.11486 -0.115654 -0.1161 -0.116174 -0.115855 -0.11512 -0.113953 -0.112338 -0.110262 -0.107716 -0.104696 -0.101202 -0.097238 -0.0928133 -0.0879429 -0.0826468 -0.0769508 -0.0708864 -0.06449 -0.0578036 -0.0508741 -0.0437527 -0.0364945 -0.0291582 -0.0218048 -0.0144969 -0.00729833 -0.000272183 0.00651938 0.0130165 0.0191627 0.0249057 0.0301985 0.0350001 0.0392766 0.0430013 0.0461557 0.0487295 0.0507207 0.0521357 0.0529889 0.0533024 0.0531053 0.0524333 0.0513271 0.0498322 0.0479972 0.0458731 0.043512 0.0409661 0.0382863 0.0355217 0.0327185 0.0299194 0.0271625 0.0244817 0.0219054 0.0194574 0.017156 0.0150147 0.0130424 0.0112434 0.00961829 0.00816418 0.0068753 0.00574355 0.00475905 0.00391064 0.00318636 0.00257388 0.00206086 0.00163528 0.00128567 0.0010013 0.000772326 0.000589835 0.000445904 0.000333588 0.000246889 0.000180698 0.000130729 9.34319e-05 6.59133e-05 4.58458e-05 3.13856e-05 2.10938e-05 1.38637e-05 8.85641e-06 5.44486e-06 3.16627e-06 1.68293e-06 7.50732e-07 1.94557e-07 -1.10463e-07 -2.52806e-07 -2.94629e-07 -2.78974e-07 -2.34905e-07 -1.81238e-07 -1.29303e-07 -8.508e-08 -5.08694e-08 -2.66203e-08 -1.09583e-08 -1.94376e-09 2.41235e-09 3.84163e-09 3.67816e-09 2.83813e-09 1.87327e-09 1.05872e-09 4.86178e-10 1.43931e-10 -2.4206e-11 -8.19729e-11 -8.19898e-11 -5.97878e-11 -3.51222e-11 -1.63236e-11 -4.9768e-12 4.08316e-13 2.09356e-12 1.98745e-12 1.30842e-12 6.57517e-13 2.30291e-13 1.88171e-14 -5.18287e-14 -5.40568e-14 -3.47268e-14 -1.6086e-14 -4.64602e-15 3.43296e-16 1.56392e-15 1.25431e-15 6.53722e-16 2.23288e-16 1.84057e-17 -4.07016e-17 -3.71671e-17 -1.95973e-17 -6.48441e-18 -4.24905e-19 1.16158e-18 9.63734e-19 4.53187e-19 1.19599e-19 -1.12756e-20 -3.31168e-20 -2.07173e-20 -7.47664e-21 -9.1049e-22 8.6531e-22 7.45417e-22 3.18227e-22 6.35054e-23 -1.87603e-23 -2.32037e-23 -1.08584e-23 -2.47067e-24 4.12406e-25 6.64479e-25 3.15542e-25 7.01231e-26 -1.20186e-26 -1.79618e-26 -7.94047e-27 -1.48721e-27 4.29379e-28 4.51614e-28 1.70177e-28 2.05386e-29 -1.43705e-29 -1.01094e-29 -2.94075e-30 -1.73999e-32 3.96297e-31 1.89731e-31 3.5462e-32 -8.73981e-33 -8.59846e-33 -2.7343e-33 -1.19142e-34 2.90807e-34 1.40361e-34 2.43112e-35 -6.70572e-36 -5.68733e-36 -1.5465e-36 3.40781e-38 1.91336e-37 7.18652e-38 6.64128e-39 -5.39873e-39 -2.7878e-39 -4.67023e-40 1.24076e-40 9.4914e-41 2.14218e-41 -2.23933e-42 -3.10366e-42 -9.31789e-43 -3.96325e-44 7.47099e-44 2.72451e-44 9.63371e-46 0 0 0 0 0 0 0 0 0 0 0 0 0 0 0 0 0 0 0 0 0 0 0 0 0 0 0 0 0 0 0 0 0 0 0 0 0 0 0 0 0 0 
0 0 0 0 0 0 0 0 0 0 0 0 0 0 0 0 0 0 0 0 0 0 0 0 0 0 0 0 0 0 0 0 0 0 0 0 0 0 0 0 0 -0 0 1.36441e-44 1.03695e-43 1.18703e-43 -6.74016e-43 -3.70573e-42 -7.09354e-42 1.04077e-41 1.03264e-40 2.56765e-40 -9.22611e-41 -2.73726e-39 -8.65836e-39 -4.95577e-39 6.13824e-38 2.57989e-37 3.5342e-37 -1.02991e-36 -6.64258e-36 -1.43179e-35 6.23811e-36 1.4109e-34 4.39785e-34 3.83871e-34 -2.19369e-33 -1.06762e-32 -1.99929e-32 1.28583e-32 1.97033e-31 5.88459e-31 5.84061e-31 -2.27669e-30 -1.21236e-29 -2.5878e-29 -4.65799e-30 1.63044e-28 5.96843e-28 9.69405e-28 -6.06013e-28 -8.43647e-27 -2.52395e-26 -3.35193e-26 4.24189e-26 3.52848e-25 9.56305e-25 1.17469e-24 -1.6051e-24 -1.23206e-23 -3.29974e-23 -4.34418e-23 3.45702e-23 3.54693e-22 1.02079e-21 1.59191e-21 8.81495e-23 -7.84408e-21 -2.69186e-20 -5.18324e-20 -4.31144e-20 1.03672e-19 5.49833e-19 1.35444e-18 2.00381e-18 5.86823e-19 -6.87786e-18 -2.52426e-17 -5.38271e-17 -7.1102e-17 -1.14329e-17 2.49828e-16 8.57402e-16 1.80341e-15 2.53707e-15 1.37289e-15 -4.98314e-15 -2.09041e-14 -4.87226e-14 -8.11167e-14 -8.82352e-14 -2.92079e-15 2.84227e-13 8.96077e-13 1.87137e-12 2.96381e-12 3.33371e-12 1.20829e-12 -6.27041e-12 -2.26005e-11 -5.02932e-11 -8.74457e-11 -1.22196e-10 -1.25575e-10 -4.47981e-11 1.98849e-10 7.00976e-10 1.54558e-09 2.7487e-09 4.16888e-09 5.38652e-09 5.56603e-09 3.33014e-09 -3.30704e-09 -1.68876e-08 -4.02691e-08 -7.6129e-08 -1.26157e-07 -1.89902e-07 -2.63239e-07 -3.36438e-07 -3.91771e-07 -4.00495e-07 -3.18934e-07 -8.31662e-08 3.98411e-07 1.25562e-06 2.6714e-06 4.90237e-06 8.30672e-06 1.33808e-05 2.08055e-05 3.15041e-05 4.67113e-05 6.80543e-05 9.7645e-05 0.000138182 0.000193061 0.00026649 0.000363608 0.000490594 0.000654775 0.000864708 0.00113024 0.00146254 0.00187405 0.00237845 0.00299047 0.00372566 0.00460015 0.00563015 0.00683157 0.00821939 0.00980703 0.0116056 0.0136235 0.0158649 0.0183299 0.0210132 0.0239037 0.0269839 0.0302296 0.0336097 0.0370861 0.0406137 0.044141 0.047611 0.0509613 0.0541259 0.0570358 0.0596208 0.061811 0.0635381 0.064737 0.0653479 0.0653171 0.0645989 0.0631567 0.0609637 0.0580047 0.0542752 0.0497831 0.0445481 0.0386007 0.0319832 0.0247476 0.0169556 0.0086768 -1.21693e-05 -0.00902972 -0.0182901 -0.0277053 -0.0371864 -0.0466452 -0.0559958 -0.0651551 -0.0740449 -0.0825924 -0.090731 -0.0984017 -0.105552 -0.112139 -0.118127 -0.123487 -0.128201 -0.132256 -0.135649 -0.138381 -0.140462 -0.141906 -0.142734 -0.142971 -0.142644 -0.141785 -0.140429 -0.138612 -0.136371 -0.133745 -0.130774 -0.127494 -0.123944 -0.120162 -0.116184 -0.112043 -0.107771 -0.103402 -0.0989618 -0.094479 -0.0899777 -0.0854806 -0.0810085 -0.0765801 -0.0722119 -0.0679183 -0.0637124 -0.0596051 -0.0556061 -0.0517227 -0.0479619 -0.0443288 -0.0408273 -0.0374608 -0.0342309 -0.0311393 -0.028186 -0.025371 -0.0226934 -0.020152 -0.0177452 -0.0154709 -0.0133267 -0.0113103 -0.0094189 -0.0076499 -0.00600037 -0.00446764 -0.00304869 -0.00174112 -0.000542231 0.000550682 0.00154013 0.00242815 0.00321681 0.00390815 0.00450368 0.00500497 0.00541352 0.00573012 0.00595556 0.00609073 0.00613572 0.00609073 0.00595556 0.00573012 0.00541352 0.00500497 0.00450368 0.00390815 0.00321681 0.00242815 0.00154013 0.000550682 -0.000542231 -0.00174112 -0.00304869 -0.00446764 -0.00600037 -0.0076499 -0.0094189 -0.0113103 -0.0133267 -0.0154709 -0.0177452 -0.020152 -0.0226934 -0.025371 -0.028186 -0.0311393 -0.0342309 -0.0374608 -0.0408273 -0.0443288 -0.0479619 -0.0517227 -0.0556061 -0.0596051 -0.0637124 -0.0679183 -0.0722119 -0.0765801 -0.0810085 -0.0854806 -0.0899777 -0.094479 -0.0989618 -0.103402 -0.107771 -0.112043 -0.116184 -0.120162 -0.123944 -0.127494 -0.130774 -0.133745 -0.136371 -0.138612 -0.140429 -0.141785 -0.142644 -0.142971 -0.142734 -0.141906 -0.140462 -0.138381 -0.135649 -0.132256 -0.128201 -0.123487 -0.118127 -0.112139 -0.105552 -0.0984017 -0.090731 -0.0825924 -0.0740449 -0.0651551 -0.0559958 -0.0466452 -0.0371864 -0.0277053 -0.0182901 -0.00902972 -1.21693e-05 0.0086768 0.0169556 0.0247476 0.0319832 0.0386007 0.0445481 0.0497831 0.0542752 0.0580047 0.0609637 0.0631567 0.0645989 0.0653171 0.0653479 0.064737 0.0635381 0.061811 0.0596208 0.0570358 0.0541259 0.0509613 0.047611 0.044141 0.0406137 0.0370861 0.0336097 0.0302296 0.0269839 0.0239037 0.0210132 0.0183299 0.0158649 0.0136235 0.0116056 0.00980703 0.00821939 0.00683157 0.00563015 0.00460015 0.00372566 0.00299047 0.00237845 0.00187405 0.00146254 0.00113024 0.000864708 0.000654775 0.000490594 0.000363608 0.00026649 0.000193061 0.000138182 9.7645e-05 6.80543e-05 4.67113e-05 3.15041e-05 2.08055e-05 1.33808e-05 8.30672e-06 4.90237e-06 2.6714e-06 1.25562e-06 3.98411e-07 -8.31662e-08 -3.18934e-07 -4.00495e-07 -3.91771e-07 -3.36438e-07 -2.63239e-07 -1.89902e-07 -1.26157e-07 -7.6129e-08 -4.02691e-08 -1.68876e-08 -3.30704e-09 3.33014e-09 5.56603e-09 5.38652e-09 4.16888e-09 2.7487e-09 1.54558e-09 7.00976e-10 1.98849e-10 -4.47981e-11 -1.25575e-10 -1.22196e-10 -8.74457e-11 -5.02932e-11 -2.26005e-11 -6.27041e-12 1.20829e-12 3.33371e-12 2.96381e-12 1.87137e-12 8.96077e-13 2.84227e-13 -2.92079e-15 -8.82352e-14 -8.11167e-14 -4.87226e-14 -2.09041e-14 -4.98314e-15 1.37289e-15 2.53707e-15 1.80341e-15 8.57402e-16 2.49828e-16 -1.14329e-17 -7.1102e-17 -5.38271e-17 -2.52426e-17 -6.87786e-18 5.86823e-19 2.00381e-18 1.35444e-18 5.49833e-19 1.03672e-19 -4.31144e-20 -5.18324e-20 -2.69186e-20 -7.84408e-21 8.81495e-23 1.59191e-21 1.02079e-21 3.54693e-22 3.45702e-23 -4.34418e-23 -3.29974e-23 -1.23206e-23 -1.6051e-24 1.17469e-24 9.56305e-25 3.52848e-25 4.24189e-26 -3.35193e-26 -2.52395e-26 -8.43647e-27 -6.06013e-28 9.69405e-28 5.96843e-28 1.63044e-28 -4.65799e-30 -2.5878e-29 -1.21236e-29 -2.27669e-30 5.84061e-31 5.88459e-31 1.97033e-31 1.28583e-32 -1.99929e-32 -1.06762e-32 -2.19369e-33 3.83871e-34 4.39785e-34 1.4109e-34 6.23811e-36 -1.43179e-35 -6.64258e-36 -1.02991e-36 3.5342e-37 2.57989e-37 6.13824e-38 -4.95577e-39 -8.65836e-39 -2.73726e-39 -9.22611e-41 2.56765e-40 1.03264e-40 1.04077e-41 -7.09354e-42 -3.70573e-42 -6.74016e-43 1.18703e-43 1.03695e-43 1.36441e-44 0 -0 0 0 0 0 0 0 0 0 0 0 0 0 0 0 0 0 0 0 0 0 0 0 0 0 0 0 0 0 0 0 0 0 0 0 0 0 0 0 0 0 
0 0 0 0 0 0 0 0 0 0 0 0 0 0 0 0 0 0 0 0 0 0 0 0 0 0 0 0 0 0 0 0 0 0 0 0 0 0 0 0 -0 0 1.36779e-44 1.10791e-43 8.89066e-44 -9.62927e-43 -4.78865e-42 -7.95783e-42 1.80221e-41 1.38216e-40 3.0272e-40 -2.74014e-40 -3.81699e-39 -1.06964e-38 -1.88801e-39 9.1127e-38 3.33781e-37 3.47776e-37 -1.73154e-36 -9.04898e-36 -1.65861e-35 1.91535e-35 2.0574e-34 5.57073e-34 2.55243e-34 -3.61029e-33 -1.45916e-32 -2.23364e-32 3.56596e-32 2.95162e-31 7.56082e-31 4.24118e-31 -4.09371e-30 -1.72922e-29 -3.06783e-29 1.57734e-29 2.68426e-28 8.21542e-28 1.02605e-27 -1.93591e-27 -1.34452e-26 -3.38811e-26 -3.09723e-26 1.06628e-25 5.59428e-25 1.27271e-24 1.0047e-24 -4.0998e-24 -1.99201e-23 -4.46068e-23 -3.96777e-23 1.13218e-22 6.03449e-22 1.44131e-21 1.68741e-21 -1.81725e-21 -1.48285e-20 -4.08644e-20 -6.38464e-20 -1.45231e-20 2.58772e-19 9.34682e-19 1.91496e-18 2.09655e-18 -1.65724e-18 -1.47656e-17 -4.15584e-17 -7.37385e-17 -6.7515e-17 8.34404e-17 5.4618e-16 1.44383e-15 2.54123e-15 2.65392e-15 -1.0628e-15 -1.32652e-14 -3.85201e-14 -7.51198e-14 -1.02698e-13 -6.47858e-14 1.44836e-13 6.70038e-13 1.61711e-12 2.8712e-12 3.77784e-12 2.73369e-12 -3.12463e-12 -1.77269e-11 -4.47249e-11 -8.42219e-11 -1.2699e-10 -1.46373e-10 -8.96664e-11 1.26784e-10 6.11574e-10 1.47148e-09 2.75322e-09 4.34562e-09 5.84161e-09 6.37305e-09 4.45038e-09 -2.1398e-09 -1.63058e-08 -4.14049e-08 -8.06924e-08 -1.36391e-07 -2.08321e-07 -2.9206e-07 -3.76585e-07 -4.41324e-07 -4.5243e-07 -3.57937e-07 -8.11893e-08 4.88362e-07 1.50821e-06 3.20127e-06 5.88154e-06 9.98892e-06 1.6135e-05 2.51619e-05 3.82146e-05 5.68289e-05 8.30345e-05 0.000119472 0.000169523 0.000237453 0.000328558 0.000449313 0.000607519 0.000812434 0.00107488 0.00140731 0.00182386 0.00234026 0.00297378 0.00374296 0.00466738 0.00576716 0.0070625 0.00857295 0.0103168 0.0123099 0.0145653 0.0170917 0.0198929 0.0229663 0.0263027 0.0298849 0.0336876 0.0376763 0.0418079 0.04603 0.0502818 0.0544941 0.0585913 0.0624912 0.066108 0.0693527 0.0721362 0.0743699 0.0759697 0.0768564 0.0769583 0.0762144 0.0745737 0.0719993 0.0684678 0.0639707 0.0585152 0.0521243 0.0448361 0.0367035 0.0277934 0.0181854 0.00796928 -0.00275489 -0.01388 -0.0252935 -0.0368801 -0.0485228 -0.0601057 -0.0715159 -0.0826447 -0.09339 -0.103657 -0.11336 -0.122423 -0.130781 -0.138377 -0.14517 -0.151127 -0.156226 -0.160455 -0.163815 -0.166313 -0.167967 -0.168802 -0.168848 -0.168143 -0.16673 -0.164655 -0.161967 -0.158718 -0.15496 -0.150747 -0.146133 -0.141169 -0.135908 -0.130399 -0.12469 -0.118826 -0.112849 -0.1068 -0.100715 -0.0946267 -0.0885672 -0.0825635 -0.0766396 -0.0708178 -0.0651171 -0.0595531 -0.0541404 -0.0488902 -0.0438116 -0.0389117 -0.0341955 -0.0296672 -0.0253288 -0.0211816 -0.0172249 -0.0134574 -0.00987722 -0.00648093 -0.00326502 -0.000225676 0.00264195 0.00534239 0.00788088 0.0102624 0.0124931 0.0145778 0.0165219 0.0183308 0.0200098 0.0215636 0.0229971 0.0243156 0.0255231 0.0266238 0.0276215 0.0285201 0.029323 0.0300326 0.0306523 0.0311848 0.0316314 0.0319944 0.0322753 0.032475 0.0325945 0.0326344 0.0325945 0.032475 0.0322753 0.0319944 0.0316314 0.0311848 0.0306523 0.0300326 0.029323 0.0285201 0.0276215 0.0266238 0.0255231 0.0243156 0.0229971 0.0215636 0.0200098 0.0183308 0.0165219 0.0145778 0.0124931 0.0102624 0.00788088 0.00534239 0.00264195 -0.000225676 -0.00326502 -0.00648093 -0.00987722 -0.0134574 -0.0172249 -0.0211816 -0.0253288 -0.0296672 -0.0341955 -0.0389117 -0.0438116 -0.0488902 -0.0541404 -0.0595531 -0.0651171 -0.0708178 -0.0766396 -0.0825635 -0.0885672 -0.0946267 -0.100715 -0.1068 -0.112849 -0.118826 -0.12469 -0.130399 -0.135908 -0.141169 -0.146133 -0.150747 -0.15496 -0.158718 -0.161967 -0.164655 -0.16673 -0.168143 -0.168848 -0.168802 -0.167967 -0.166313 -0.163815 -0.160455 -0.156226 -0.151127 -0.14517 -0.138377 -0.130781 -0.122423 -0.11336 -0.103657 -0.09339 -0.0826447 -0.0715159 -0.0601057 -0.0485228 -0.0368801 -0.0252935 -0.01388 -0.00275489 0.00796928 0.0181854 0.0277934 0.0367035 0.0448361 0.0521243 0.0585152 0.0639707 0.0684678 0.0719993 0.0745737 0.0762144 0.0769583 0.0768564 0.0759697 0.0743699 0.0721362 0.0693527 0.066108 0.0624912 0.0585913 0.0544941 0.0502818 0.04603 0.0418079 0.0376763 0.0336876 0.0298849 0.0263027 0.0229663 0.0198929 0.0170917 0.0145653 0.0123099 0.0103168 0.00857295 0.0070625 0.00576716 0.00466738 0.00374296 0.00297378 0.00234026 0.00182386 0.00140731 0.00107488 0.000812434 0.000607519 0.000449313 0.000328558 0.000237453 0.000169523 0.000119472 8.30345e-05 5.68289e-05 3.82146e-05 2.51619e-05 1.6135e-05 9.98892e-06 5.88154e-06 3.20127e-06 1.50821e-06 4.88362e-07 -8.11893e-08 -3.57937e-07 -4.5243e-07 -4.41324e-07 -3.76585e-07 -2.9206e-07 -2.08321e-07 -1.36391e-07 -8.06924e-08 -4.14049e-08 -1.63058e-08 -2.1398e-09 4.45038e-09 6.37305e-09 5.84161e-09 4.34562e-09 2.75322e-09 1.47148e-09 6.11574e-10 1.26784e-10 -8.96664e-11 -1.46373e-10 -1.2699e-10 -8.42219e-11 -4.47249e-11 -1.77269e-11 -3.12463e-12 2.73369e-12 3.77784e-12 2.8712e-12 1.61711e-12 6.70038e-13 1.44836e-13 -6.47858e-14 -1.02698e-13 -7.51198e-14 -3.85201e-14 -1.32652e-14 -1.0628e-15 2.65392e-15 2.54123e-15 1.44383e-15 5.4618e-16 8.34404e-17 -6.7515e-17 -7.37385e-17 -4.15584e-17 -1.47656e-17 -1.65724e-18 2.09655e-18 1.91496e-18 9.34682e-19 2.58772e-19 -1.45231e-20 -6.38464e-20 -4.08644e-20 -1.48285e-20 -1.81725e-21 1.68741e-21 1.44131e-21 6.03449e-22 1.13218e-22 -3.96777e-23 -4.46068e-23 -1.99201e-23 -4.0998e-24 1.0047e-24 1.27271e-24 5.59428e-25 1.06628e-25 -3.09723e-26 -3.38811e-26 -1.34452e-26 -1.93591e-27 1.02605e-27 8.21542e-28 2.68426e-28 1.57734e-29 -3.06783e-29 -1.72922e-29 -4.09371e-30 4.24118e-31 7.56082e-31 2.95162e-31 3.56596e-32 -2.23364e-32 -1.45916e-32 -3.61029e-33 2.55243e-34 5.57073e-34 2.0574e-34 1.91535e-35 -1.65861e-35 -9.04898e-36 -1.73154e-36 3.47776e-37 3.33781e-37 9.1127e-38 -1.88801e-39 -1.06964e-38 -3.81699e-39 -2.74014e-40 3.0272e-40 1.38216e-40 1.80221e-41 -7.95783e-42 -4.78865e-42 -9.62927e-43 8.89066e-44 1.10791e-43 1.36779e-44 0 -0 0 0 0 0 0 0 0 0 0 0 0 0 0 0 0 0 0 0 0 0 0 0 0 0 0 0 0 0 0 0 0 0 0 0 0 0 0 0 0 