<?xml version="1.0"?>
<VTKFile type="ImageData" version="0.1" byte_order="LittleEndian">
<ImageData WholeExtent="0 599 0 599 0 0" Origin="0 0 0" Spacing="5 5 0">
<Piece Extent="0 599 0 599 0 0">
<PointData Scalars="Amplitude">
<DataArray type="Float32" Name="Amplitude" format="ascii">
0 0 0 0 0 0 0 0 0 0 0 0 0 0 0 0 0 0 0 0 0 0 0 0 0 0 0 0 0 0 0 0 0 0 0 0 0 0 0 0 0 0 0 0 0 0 0 0 0 0 0 0 0 0 0 0 0 0 0 0 0 0 0 0 0 0 0 0 0 0 0 0 0 0 0 0 0 0 0 0 0 0 0 0 0 0 0 0 0 0 0 0 0 0 0 0 0 0 0 0 0 0 0 0 0 0 0 0 0 0 0 0 0 0 0 0 0 0 0 0 0 0 0 0 0 0 0 0 0 0 0 0 0 0 0 0 0 0 0 0 0 0 0 0 0 0 0 0 0 0 0 0 0 0 0 0 0 0 0 0 0 0 0 0 0 0 0 0 0 0 0 0 0 0 0 0 0 0 0 0 0 0 0 0 0 0 0 0 0 0 0 0 0 0 0 0 0 0 0 0 0 0 0 0 0 0 0 0 0 0 0 0 0 0 0 0 0 0 0 0 0 0 0 0 0 0 0 0 0 0 0 0 0 0 0 0 0 0 0 0 0 0 0 0 0 0 0 0 0 0 0 0 0 0 0 0 0 0 0 0 0 0 0 0 0 0 0 0 0 0 0 0 0 0 0 0 0 0 0 0 0 0 0 0 0 0 0 0 0 0 0 0 0 0 0 0 0 0 0 0 0 0 0 0 0 0 0 0 0 0 0 0 0 0 0 0 0 0 0 0 0 0 0 0 0 0 0 0 0 0 0 0 0 0 0 0 0 0 0 0 0 0 0 0 0 0 0 0 0 0 0 0 0 0 0 0 0 0 0 0 0 0 0 0 0 0 0 0 0 0 0 0 0 0 0 0 0 0 0 0 0 0 0 0 0 0 0 0 0 0 0 0 0 0 0 0 0 0 0 0 0 0 0 0 0 0 0 0 0 0 0 0 0 0 0 0 0 0 0 0 0 0 0 0 0 0 0 0 0 0 0 0 0 0 0 0 0 0 0 0 0 0 0 0 0 0 0 0 0 0 0 0 0 0 0 0 0 0 0 0 0 0 0 0 0 0 0 0 0 0 0 0 0 0 0 0 0 0 0 0 0 0 0 0 0 0 0 0 0 0 0 0 0 0 0 0 0 0 0 0 0 0 0 0 0 0 0 0 0 0 0 0 0 0 0 0 0 0 0 0 0 0 0 0 0 0 0 0 0 0 0 0 0 0 0 0 0 0 0 0 0 0 0 0 0 0 0 0 0 0 0 0 0 0 0 0 0 0 0 0 0 0 0 0 0 0 0 0 0 0 0 0 0 0 0 0 0 0 0 0 0 0 0 0 0 0 0 0 0 0 0 0 0 0 0 0 0 0 0 0 
0 0 0 0 0 0 0 0 0 0 0 0 0 0 0 0 0 0 0 0 0 0 0 0 0 0 0 0 0 0 0 0 0 0 0 0 0 0 0 0 0 0 0 0 0 0 0 0 0 0 0 0 0 0 0 0 0 0 0 0 0 0 0 0 0 0 0 0 0 0 0 0 0 0 0 0 0 0 0 0 0 0 0 0 0 0 0 0 0 0 0 0 0 0 0 0 0 0 0 0 0 0 0 0 0 0 0 0 0 0 0 0 0 0 0 0 0 0 0 0 0 0 0 0 0 0 0 0 0 0 0 0 0 0 0 0 0 0 0 0 0 0 0 0 0 0 0 0 0 0 0 0 0 0 0 0 0 0 0 0 0 0 0 0 0 0 0 0 0 0 0 0 0 0 0 0 0 0 0 0 0 0 0 0 0 0 0 0 0 0 0 0 0 0 0 0 0 0 0 0 0 0 0 0 0 0 0 0 0 0 0 0 0 0 0 0 0 0 0 0 0 0 0 0 0 0 0 0 0 0 0 0 0 0 0 0 0 0 0 0 0 0 0 0 0 0 0 0 0 0 0 0 0 0 0 0 0 0 0 0 0 0 0 0 0 0 0 0 0 0 0 0 0 0 0 0 0 0 0 0 0 0 0 0 0 0 0 0 0 0 0 0 0 0 0 0 0 0 0 0 0 0 0 0 0 0 0 0 0 0 0 0 0 0 0 0 0 0 0 0 0 0 0 0 0 0 0 0 0 0 0 0 0 0 0 0 0 0 0 0 0 0 0 0 0 0 0 0 0 0 0 0 0 0 0 0 0 0 0 0 0 0 0 0 0 0 0 0 0 0 0 0 0 0 0 0 0 0 0 0 0 0 0 0 0 0 0 0 0 0 0 0 0 0 0 0 0 0 0 0 0 0 0 0 0 0 0 0 0 0 0 0 0 0 0 0 0 0 0 0 0 0 0 0 0 0 0 0 0 0 0 0 0 0 0 0 0 0 0 0 0 0 0 0 0 0 0 0 0 0 0 0 0 0 0 0 0 0 0 0 0 0 0 0 0 0 0 0 0 0 0 0 0 0 0 0 0 0 0 0 0 0 0 0 0 0 0 0 0 0 0 0 0 0 0 0 0 0 0 0 0 0 0 0 0 0 0 0 0 0 0 0 0 0 0 0 0 0 0 0 0 0 0 0 0 0 0 0 0 0 0 0 0 0 0 0 0 0 0 0 0 0 0 0 0 0 0 0 0 0 0 0 0 0 0 0 0 0 0 0 0 0 0 0 0 0 0 0 0 0 0 0 0 0 0 0 0 0 0 0 0 0 0 0 0 0 0 0 0 0 0 0 0 0 0 0 0 0 0 0 
0 0 -1.04453e-06 -2.19789e-06 -2.96853e-06 -3.83028e-06 -4.84778e-06 -6.04338e-06 -7.43061e-06 -9.02341e-06 -1.08305e-05 -1.28656e-05 -1.51168e-05 -1.75588e-05 -2.0189e-05 -2.29662e-05 -2.58728e-05 -2.88877e-05 -3.19996e-05 -3.52278e-05 -3.84779e-05 -4.17531e-05 -4.50467e-05 -4.82684e-05 -5.14043e-05 -5.45146e-05 -5.75855e-05 -6.07172e-05 -6.39772e-05 -6.72279e-05 -7.05015e-05 -7.39404e-05 -7.74888e-05 -8.11414e-05 -8.49584e-05 -8.89222e-05 -9.30676e-05 -9.73987e-05 -0.000101875 -0.000106577 -0.000111434 -0.000116481 -0.000121767 -0.000127331 -0.000133112 -0.000139066 -0.000145311 -0.000151809 -0.000158511 -0.000165496 -0.000172786 -0.000180342 -0.000188192 -0.000196364 -0.000204847 -0.000213672 -0.000222787 -0.000232195 -0.000241844 -0.000251828 -0.000262165 -0.000272766 -0.000283688 -0.000294879 -0.000306313 -0.000317944 -0.000329828 -0.000341925 -0.000354192 -0.000366585 -0.000379101 -0.000391668 -0.000404225 -0.000416766 -0.000429179 -0.00044141 -0.000453495 -0.000465392 -0.000476931 -0.000488098 -0.000498842 -0.000509032 -0.000518567 -0.000527351 -0.000535229 -0.00054204 -0.000547511 -0.000551275 -0.000552816 -0.000551585 -0.000546736 -0.0005374 -0.000522334 -0.000500278 -0.00047001 -0.000430162 -0.000379597 -0.000317176 -0.000242189 -0.000154355 -5.37008e-05 5.93799e-05 0.000184163 0.00031937 0.00046361 0.00061518 0.000772159 0.00093237 0.00109331 0.0012523 0.00140641 0.00155255 0.0016875 0.00180797 0.00191077 0.00199303 0.00205221 0.00208614 0.00209319 0.00207226 0.00202294 0.00194539 0.0018404 0.0017094 0.00155441 0.00137802 0.00118343 0.000974291 0.000754571 0.000528503 0.000300412 7.46969e-05 -0.000144182 -0.000352112 -0.000545337 -0.000720399 -0.000874304 -0.0010047 -0.0011097 -0.00118819 -0.00123976 -0.00126467 -0.00126396 -0.00123935 -0.00119332 -0.00112891 -0.00104949 -0.000958871 -0.000860993 -0.000759638 -0.000658444 -0.000560507 -0.000468516 -0.000384455 -0.000309637 -0.000244736 -0.000189859 -0.000144651 -0.000108257 -7.96652e-05 -5.77584e-05 -4.14237e-05 -2.94894e-05 -2.10078e-05 -1.51312e-05 -1.11749e-05 -8.58402e-06 -6.92154e-06 -5.86893e-06 -5.19627e-06 -4.79403e-06 -4.57458e-06 -4.38362e-06 -4.29646e-06 -4.23414e-06 -4.15969e-06 -4.127e-06 -4.13939e-06 -4.10925e-06 -4.08247e-06 -4.05254e-06 -4.00953e-06 -3.96794e-06 -3.96563e-06 -3.96384e-06 -3.89926e-06 -3.85569e-06 -3.82477e-06 -3.76017e-06 -3.73132e-06 -3.67679e-06 -3.63833e-06 -3.61115e-06 -3.60139e-06 -3.61261e-06 -3.65474e-06 -3.70897e-06 -3.7377e-06 -3.75374e-06 -3.74639e-06 -3.68411e-06 -3.67206e-06 -3.64048e-06 -3.5946e-06 -3.56507e-06 -3.55301e-06 -3.554e-06 -3.51768e-06 -3.50157e-06 -3.51401e-06 -3.53046e-06 -3.526e-06 -3.48762e-06 -3.42599e-06 -3.38284e-06 -3.36344e-06 -3.35368e-06 -3.36076e-06 -3.29253e-06 -3.21354e-06 -3.18731e-06 -3.22335e-06 -3.22566e-06 -3.20758e-06 -3.16898e-06 -3.11158e-06 -3.04158e-06 -3.02495e-06 -3.0155e-06 -2.99666e-06 -3.00368e-06 -2.98643e-06 -2.97531e-06 -2.96787e-06 -2.98462e-06 -3.00356e-06 -3.02434e-06 -3.02849e-06 -2.99277e-06 -2.93271e-06 -2.927e-06 -2.93742e-06 -2.91231e-06 -2.89594e-06 -2.92546e-06 -2.8667e-06 -2.83949e-06 -2.83665e-06 -2.82704e-06 -2.80699e-06 -2.79899e-06 -2.80137e-06 -2.85523e-06 -2.86499e-06 -2.80718e-06 -2.83728e-06 -2.86682e-06 -2.93405e-06 -2.98515e-06 -3.0235e-06 -2.9537e-06 -2.8948e-06 -2.84858e-06 -2.82329e-06 -2.80514e-06 -2.74608e-06 -2.73468e-06 -2.72089e-06 -2.72012e-06 -2.7014e-06 -2.68873e-06 -2.67756e-06 -2.69363e-06 -2.72908e-06 -2.71079e-06 -2.6635e-06 -2.66135e-06 -2.68426e-06 -2.70628e-06 -2.67831e-06 -2.70452e-06 -2.69376e-06 -2.68438e-06 -2.69199e-06 -2.67071e-06 -2.67537e-06 -2.70882e-06 -2.74871e-06 -2.69987e-06 -2.66337e-06 -2.67635e-06 -2.67321e-06 -2.67794e-06 -2.69184e-06 -2.69538e-06 -2.65898e-06 -2.64417e-06 -2.64375e-06 -2.65048e-06 -2.60493e-06 -2.53414e-06 -2.60493e-06 -2.65048e-06 -2.64375e-06 -2.64417e-06 -2.65898e-06 -2.69538e-06 -2.69184e-06 -2.67794e-06 -2.67321e-06 -2.67635e-06 -2.66337e-06 -2.69987e-06 -2.74871e-06 -2.70882e-06 -2.67537e-06 -2.67071e-06 -2.69199e-06 -2.68438e-06 -2.69376e-06 -2.70452e-06 -2.67831e-06 -2.70628e-06 -2.68427e-06 -2.66136e-06 -2.6635e-06 -2.7108e-06 -2.72909e-06 -2.69363e-06 -2.67756e-06 -2.68873e-06 -2.7014e-06 -2.72012e-06 -2.72088e-06 -2.73467e-06 -2.74607e-06 -2.80513e-06 -2.82328e-06 -2.84857e-06 -2.8948e-06 -2.9537e-06 -3.0235e-06 -2.98517e-06 -2.93406e-06 -2.86681e-06 -2.83727e-06 -2.80718e-06 -2.86502e-06 -2.85527e-06 -2.80141e-06 -2.79901e-06 -2.80696e-06 -2.82691e-06 -2.83641e-06 -2.83918e-06 -2.86638e-06 -2.92513e-06 -2.89557e-06 -2.91177e-06 -2.93652e-06 -2.92578e-06 -2.9317e-06 -2.99266e-06 -3.02954e-06 -3.02596e-06 -3.00479e-06 -2.98493e-06 -2.96742e-06 -2.97458e-06 -2.9856e-06 -3.00257e-06 -2.99516e-06 -3.01381e-06 -3.02356e-06 -3.04096e-06 -3.11173e-06 -3.16984e-06 -3.21017e-06 -3.23171e-06 -3.23308e-06 -3.19778e-06 -3.21973e-06 -3.29104e-06 -3.35254e-06 -3.34202e-06 -3.35074e-06 -3.3703e-06 -3.41384e-06 -3.47543e-06 -3.51518e-06 -3.52395e-06 -3.51064e-06 -3.49529e-06 -3.5049e-06 -3.53597e-06 -3.53171e-06 -3.54676e-06 -3.59104e-06 -3.65574e-06 -3.69674e-06 -3.70597e-06 -3.75765e-06 -3.75327e-06 -3.73093e-06 -3.70026e-06 -3.64518e-06 -3.60494e-06 -3.59665e-06 -3.6076e-06 -3.63604e-06 -3.67605e-06 -3.73308e-06 -3.76587e-06 -3.83508e-06 -3.87282e-06 -3.92425e-06 -3.99901e-06 -4.01276e-06 -4.0157e-06 -4.04815e-06 -4.09528e-06 -4.15441e-06 -4.24994e-06 -4.42523e-06 -4.66087e-06 -5.05691e-06 -5.64681e-06 -6.44964e-06 -7.59416e-06 -9.24154e-06 -1.13754e-05 -1.41632e-05 -1.76254e-05 -2.17664e-05 -2.66688e-05 -3.2365e-05 -3.88836e-05 -4.63384e-05 -5.49858e-05 -6.528e-05 -7.78769e-05 -9.38378e-05 -0.000114416 -0.000141153 -0.000175696 -0.000219692 -0.000274433 -0.000340712 -0.000418534 -0.000507024 -0.000604415 -0.000707912 -0.000813971 -0.000918332 -0.00101653 -0.00110394 -0.00117609 -0.00122913 -0.00125971 -0.00126523 -0.00124395 -0.00119496 -0.00111823 -0.00101433 -0.000884535 -0.000730909 -0.000555909 -0.000362607 -0.000154469 6.47362e-05 0.000290911 0.000519659 0.000746636 0.000967622 0.0011785 0.00137528 0.00155423 0.00171211 0.00184615 0.0019541 0.0020343 0.00208575 0.00210808 0.00210161 0.00206741 0.0020071 0.00192297 0.00181761 0.00169383 0.00155475 0.00140361 0.00124351 0.00107754 0.000908636 0.000739734 0.000573784 0.00041363 0.000261895 0.000120964 -7.17998e-06 -0.000120935 -0.000219529 -0.000302781 -0.000371136 -0.00042551 -0.000467287 -0.0004982 -0.00051993 -0.000534219 -0.000542495 -0.00054613 -0.000546298 -0.000543783 -0.000539306 -0.000533311 -0.000526148 -0.000518087 -0.000509331 -0.000499936 -0.000490047 -0.000479679 -0.000468914 -0.000457857 -0.000446531 -0.000434909 -0.000423183 -0.000411359 -0.00039939 -0.000387334 -0.000375284 -0.000363254 -0.000351284 -0.000339463 -0.000327772 -0.000316272 -0.000304981 -0.000293946 -0.000283114 -0.00027252 -0.000262186 -0.00025216 -0.000242377 -0.000232956 -0.000223831 -0.000214959 -0.000206336 -0.00019801 -0.000189991 -0.000182281 -0.000174858 -0.000167711 -0.000160804 -0.000154193 -0.000147843 -0.000141684 -0.000135758 -0.000130114 -0.000124616 -0.000119328 -0.000114295 -0.000109487 -0.000104851 -0.000100373 -9.60941e-05 -9.19483e-05 -8.79698e-05 -8.41636e-05 -8.04963e-05 -7.69881e-05 -7.35646e-05 -7.02338e-05 -6.70499e-05 -6.38721e-05 -6.06307e-05 -5.76341e-05 -5.46846e-05 -5.16775e-05 -4.86175e-05 -4.54547e-05 -4.22003e-05 -3.89598e-05 -3.57303e-05 -3.25049e-05 -2.93846e-05 -2.63459e-05 -2.34141e-05 -2.06062e-05 -1.79463e-05 -1.54691e-05 -1.31884e-05 -1.11186e-05 -9.27416e-06 -7.65006e-06 -6.23257e-06 -5.00091e-06 -3.93218e-06 -2.94785e-06 -1.4112e-06 0 0 
0 0 -2.19789e-06 -4.67321e-06 -6.21925e-06 -7.97845e-06 -1.00705e-05 -1.25288e-05 -1.53786e-05 -1.86394e-05 -2.23407e-05 -2.64929e-05 -3.10463e-05 -3.59943e-05 -4.13341e-05 -4.6995e-05 -5.28912e-05 -5.90028e-05 -6.53682e-05 -7.18784e-05 -7.84572e-05 -8.51335e-05 -9.17602e-05 -9.82704e-05 -0.000104688 -0.000110995 -0.000117271 -0.000123646 -0.000130048 -0.000136557 -0.000143318 -0.000150332 -0.000157522 -0.000165022 -0.000172823 -0.000180923 -0.000189416 -0.000198223 -0.000207396 -0.00021688 -0.00022673 -0.000237057 -0.00024793 -0.000259202 -0.000270873 -0.000283061 -0.000295794 -0.000309013 -0.000322772 -0.000337095 -0.000351931 -0.000367362 -0.000383443 -0.000400164 -0.000417511 -0.000435485 -0.000454024 -0.000473197 -0.000493047 -0.000513578 -0.000534664 -0.000556351 -0.000578666 -0.000601588 -0.000625052 -0.000649034 -0.000673496 -0.000698349 -0.000723572 -0.000749106 -0.000774824 -0.000800644 -0.000826541 -0.000852381 -0.000878046 -0.000903465 -0.000928556 -0.000953084 -0.000977005 -0.00100022 -0.00102254 -0.00104384 -0.00106392 -0.00108249 -0.00109932 -0.00111402 -0.00112607 -0.00113478 -0.0011392 -0.00113817 -0.00113011 -0.00111316 -0.00108508 -0.00104349 -0.000985686 -0.000908948 -0.000810757 -0.00068885 -0.000541624 -0.000368096 -0.000168053 5.79021e-05 0.000308235 0.000580802 0.000872879 0.00118106 0.00150147 0.00182977 0.00216101 0.00248985 0.00281035 0.00311616 0.00340063 0.00365713 0.00387922 0.00406078 0.00419616 0.00428072 0.00431086 0.00428397 0.00419885 0.0040555 0.00385514 0.00360036 0.00329496 0.00294409 0.0025539 0.00213164 0.00168524 0.00122321 0.000754489 0.000288237 -0.000166597 -0.000601417 -0.00100822 -0.00137964 -0.00170933 -0.00199192 -0.00222331 -0.00240086 -0.00252318 -0.00259043 -0.00260434 -0.00256812 -0.00248637 -0.00236495 -0.00221062 -0.00203103 -0.00183398 -0.00162747 -0.00141908 -0.00121551 -0.00102254 -0.000844585 -0.00068481 -0.000545014 -0.000425778 -0.00032655 -0.000245998 -0.000182236 -0.000132939 -9.5737e-05 -6.83476e-05 -4.87156e-05 -3.49404e-05 -2.55429e-05 -1.92936e-05 -1.52608e-05 -1.26726e-05 -1.10281e-05 -1.00338e-05 -9.39885e-06 -9.06495e-06 -8.88222e-06 -8.7405e-06 -8.62526e-06 -8.52528e-06 -8.47535e-06 -8.4243e-06 -8.36611e-06 -8.26753e-06 -8.17328e-06 -8.10893e-06 -8.11402e-06 -8.04989e-06 -7.99809e-06 -7.94373e-06 -7.83913e-06 -7.7963e-06 -7.74104e-06 -7.67975e-06 -7.63038e-06 -7.5766e-06 -7.55868e-06 -7.56107e-06 -7.56134e-06 -7.57378e-06 -7.54542e-06 -7.5278e-06 -7.47576e-06 -7.41938e-06 -7.39203e-06 -7.3659e-06 -7.35437e-06 -7.31538e-06 -7.3224e-06 -7.28238e-06 -7.22249e-06 -7.17062e-06 -7.12189e-06 -7.11062e-06 -7.08211e-06 -7.058e-06 -7.01011e-06 -6.96874e-06 -6.94626e-06 -6.88845e-06 -6.85614e-06 -6.78393e-06 -6.72337e-06 -6.63066e-06 -6.59065e-06 -6.57602e-06 -6.56926e-06 -6.50375e-06 -6.40375e-06 -6.35858e-06 -6.32723e-06 -6.25279e-06 -6.22671e-06 -6.16645e-06 -6.16019e-06 -6.12912e-06 -6.11217e-06 -6.1022e-06 -6.09054e-06 -6.06396e-06 -6.06342e-06 -6.06237e-06 -6.09843e-06 -6.11234e-06 -6.13054e-06 -6.05766e-06 -6.01693e-06 -5.99342e-06 -5.95629e-06 -5.91535e-06 -5.867e-06 -5.84214e-06 -5.86207e-06 -5.90327e-06 -5.89847e-06 -5.90838e-06 -5.90065e-06 -5.89219e-06 -5.90786e-06 -5.92297e-06 -5.91295e-06 -5.9363e-06 -5.95667e-06 -5.94631e-06 -5.88557e-06 -5.84476e-06 -5.84355e-06 -5.83118e-06 -5.76196e-06 -5.6994e-06 -5.6703e-06 -5.68257e-06 -5.6926e-06 -5.75145e-06 -5.75943e-06 -5.70535e-06 -5.6698e-06 -5.61419e-06 -5.61347e-06 -5.62739e-06 -5.66102e-06 -5.62964e-06 -5.64759e-06 -5.64428e-06 -5.66199e-06 -5.62432e-06 -5.65065e-06 -5.64947e-06 -5.62959e-06 -5.56649e-06 -5.5446e-06 -5.55444e-06 -5.56414e-06 -5.57429e-06 -5.56306e-06 -5.56562e-06 -5.55533e-06 -5.50339e-06 -5.51473e-06 -5.53167e-06 -5.52509e-06 -5.4778e-06 -5.43818e-06 -5.3927e-06 -5.43818e-06 -5.4778e-06 -5.52509e-06 -5.53167e-06 -5.51473e-06 -5.50339e-06 -5.55533e-06 -5.56562e-06 -5.56306e-06 -5.57429e-06 -5.56414e-06 -5.55444e-06 -5.5446e-06 -5.56649e-06 -5.62959e-06 -5.64947e-06 -5.65065e-06 -5.62432e-06 -5.66199e-06 -5.64428e-06 -5.64759e-06 -5.62964e-06 -5.66103e-06 -5.62739e-06 -5.61348e-06 -5.6142e-06 -5.66981e-06 -5.70536e-06 -5.75943e-06 -5.75145e-06 -5.6926e-06 -5.68256e-06 -5.67028e-06 -5.69939e-06 -5.76195e-06 -5.83117e-06 -5.84354e-06 -5.84475e-06 -5.88556e-06 -5.94632e-06 -5.95668e-06 -5.93633e-06 -5.91296e-06 -5.92296e-06 -5.90786e-06 -5.89222e-06 -5.9007e-06 -5.90843e-06 -5.89849e-06 -5.90322e-06 -5.86191e-06 -5.84183e-06 -5.86654e-06 -5.91478e-06 -5.95563e-06 -5.99264e-06 -6.0159e-06 -6.05611e-06 -6.12838e-06 -6.11013e-06 -6.09734e-06 -6.06326e-06 -6.06596e-06 -6.06671e-06 -6.09205e-06 -6.10207e-06 -6.11102e-06 -6.12761e-06 -6.15846e-06 -6.16415e-06 -6.22362e-06 -6.24935e-06 -6.32448e-06 -6.35733e-06 -6.40427e-06 -6.50702e-06 -6.57791e-06 -6.59213e-06 -6.61214e-06 -6.65034e-06 -6.73268e-06 -6.77847e-06 -6.83724e-06 -6.86051e-06 -6.9149e-06 -6.93927e-06 -6.9851e-06 -7.03769e-06 -7.06681e-06 -7.09924e-06 -7.10938e-06 -7.15075e-06 -7.19241e-06 -7.24355e-06 -7.28351e-06 -7.29394e-06 -7.36333e-06 -7.39948e-06 -7.43243e-06 -7.4508e-06 -7.49042e-06 -7.52695e-06 -7.5335e-06 -7.55486e-06 -7.54459e-06 -7.5551e-06 -7.55898e-06 -7.57348e-06 -7.62476e-06 -7.68282e-06 -7.75792e-06 -7.8189e-06 -7.86384e-06 -7.98165e-06 -8.06108e-06 -8.13505e-06 -8.19953e-06 -8.17759e-06 -8.24329e-06 -8.3827e-06 -8.58103e-06 -8.83532e-06 -9.24096e-06 -9.84931e-06 -1.0775e-05 -1.21013e-05 -1.3996e-05 -1.66359e-05 -2.02649e-05 -2.51126e-05 -3.12276e-05 -3.87868e-05 -4.78522e-05 -5.84703e-05 -7.07228e-05 -8.47336e-05 -0.000100866 -0.000119712 -0.0001424 -0.000170513 -0.000206301 -0.000252623 -0.000312769 -0.000390007 -0.000487401 -0.000607364 -0.000750996 -0.000917795 -0.0011054 -0.00130956 -0.00152406 -0.00174121 -0.00195217 -0.00214751 -0.002318 -0.00245482 -0.00255035 -0.00259818 -0.0025935 -0.00253319 -0.00241578 -0.00224146 -0.00201201 -0.00173047 -0.00140124 -0.00102986 -0.000622842 -0.000187576 0.000267958 0.000735244 0.00120546 0.00166963 0.00211902 0.00254518 0.00294011 0.00329649 0.00360791 0.00386884 0.00407503 0.00422348 0.00431252 0.00434179 0.00431234 0.0042267 0.00408857 0.00390271 0.00367482 0.00341095 0.00311742 0.00280072 0.00246729 0.00212343 0.00177535 0.00142902 0.00109048 0.00076542 0.000459102 0.000176281 -7.93006e-05 -0.000304974 -0.000499274 -0.000662223 -0.000795067 -0.000900083 -0.000980188 -0.00103886 -0.00107962 -0.00110581 -0.00112054 -0.00112626 -0.00112517 -0.00111891 -0.00110882 -0.0010958 -0.00108051 -0.00106349 -0.00104501 -0.00102537 -0.00100465 -0.000983076 -0.000960752 -0.000937787 -0.000914302 -0.000890379 -0.000866032 -0.000841459 -0.000816743 -0.000791905 -0.00076709 -0.000742389 -0.000717844 -0.000693496 -0.00066949 -0.000645869 -0.000622653 -0.000599906 -0.000577683 -0.000555982 -0.000534879 -0.000514366 -0.000494438 -0.000475029 -0.000456279 -0.000438168 -0.000420661 -0.00040368 -0.000387278 -0.000371471 -0.000356263 -0.000341674 -0.000327631 -0.000314063 -0.000301025 -0.000288485 -0.000276409 -0.000264838 -0.000253761 -0.000243034 -0.000232696 -0.000222852 -0.00021347 -0.000204412 -0.000195663 -0.00018723 -0.000179101 -0.000171331 -0.000163833 -0.000156617 -0.000149678 -0.000142893 -0.000136314 -0.000129961 -0.000123467 -0.000117456 -0.00011142 -0.000105277 -9.89889e-05 -9.2576e-05 -8.60273e-05 -7.93991e-05 -7.28562e-05 -6.63582e-05 -5.99913e-05 -5.38595e-05 -4.79256e-05 -4.22129e-05 -3.68108e-05 -3.17978e-05 -2.71777e-05 -2.29603e-05 -1.91851e-05 -1.58529e-05 -1.29354e-05 -1.04069e-05 -8.23033e-06 -6.25951e-06 -2.96252e-06 0 0 
0 0 -2.96853e-06 -6.21925e-06 -8.16185e-06 -1.0331e-05 -1.28659e-05 -1.57981e-05 -1.91579e-05 -2.29671e-05 -2.72711e-05 -3.20141e-05 -3.71357e-05 -4.27005e-05 -4.86373e-05 -5.48197e-05 -6.12002e-05 -6.7914e-05 -7.49363e-05 -8.19908e-05 -8.92231e-05 -9.65653e-05 -0.000103745 -0.000110895 -0.000118033 -0.000125069 -0.00013217 -0.000139269 -0.000146325 -0.000153688 -0.000161451 -0.000169341 -0.000177455 -0.000186025 -0.000194837 -0.000204095 -0.000213771 -0.000223733 -0.000234107 -0.000244753 -0.000255981 -0.000267898 -0.00028033 -0.000293018 -0.000306286 -0.000320271 -0.000334798 -0.000349873 -0.000365634 -0.000381971 -0.000398903 -0.000416666 -0.000435205 -0.000454408 -0.000474365 -0.000494928 -0.000516215 -0.000538361 -0.000561369 -0.000585088 -0.000609371 -0.000634556 -0.000660498 -0.000687217 -0.000714549 -0.000742597 -0.000771197 -0.000800365 -0.000830088 -0.000860221 -0.000890591 -0.000921276 -0.000952181 -0.000983082 -0.00101389 -0.00104465 -0.00107501 -0.00110486 -0.00113427 -0.00116298 -0.0011908 -0.00121766 -0.00124326 -0.00126737 -0.00128992 -0.00131051 -0.00132877 -0.00134393 -0.00135535 -0.00136186 -0.00136213 -0.00135418 -0.00133596 -0.00130502 -0.001258 -0.00119188 -0.00110304 -0.000988452 -0.000845391 -0.000671614 -0.000465852 -0.000227831 4.13256e-05 0.00034022 0.000666203 0.0010159 0.00138546 0.00177005 0.0021646 0.00256338 0.00295982 0.00334675 0.00371636 0.00406093 0.00437248 0.00464299 0.00486467 0.00503105 0.00513641 0.0051762 0.0051475 0.00504862 0.00487941 0.00464129 0.00433736 0.00397233 0.00355222 0.00308449 0.00257767 0.00204118 0.00148549 0.00092161 0.000360257 -0.000187925 -0.000712384 -0.0012033 -0.00165195 -0.00205026 -0.00239202 -0.00267221 -0.00288725 -0.00303558 -0.00311729 -0.00313452 -0.00309101 -0.00299217 -0.00284507 -0.00265802 -0.00244013 -0.00220127 -0.00195097 -0.00169867 -0.00145247 -0.00121934 -0.00100475 -0.000812487 -0.00064471 -0.00050185 -0.000383438 -0.000287737 -0.000212245 -0.000154043 -0.000110424 -7.85515e-05 -5.57222e-05 -3.98403e-05 -2.91024e-05 -2.2016e-05 -1.7366e-05 -1.44429e-05 -1.25785e-05 -1.13779e-05 -1.08987e-05 -1.05673e-05 -1.03392e-05 -1.0199e-05 -1.00397e-05 -9.88133e-06 -9.82202e-06 -9.79815e-06 -9.68049e-06 -9.62994e-06 -9.64052e-06 -9.57504e-06 -9.42169e-06 -9.4279e-06 -9.33765e-06 -9.25352e-06 -9.24521e-06 -9.09275e-06 -9.07016e-06 -8.98698e-06 -8.9065e-06 -8.87887e-06 -8.86231e-06 -8.83769e-06 -8.77815e-06 -8.81924e-06 -8.81721e-06 -8.74601e-06 -8.73114e-06 -8.60824e-06 -8.54282e-06 -8.59602e-06 -8.56941e-06 -8.61513e-06 -8.50282e-06 -8.4478e-06 -8.34837e-06 -8.27944e-06 -8.24567e-06 -8.1652e-06 -8.18689e-06 -8.21194e-06 -8.22675e-06 -8.15316e-06 -8.08058e-06 -7.98629e-06 -7.94577e-06 -7.95158e-06 -7.82787e-06 -7.67615e-06 -7.66595e-06 -7.64694e-06 -7.54402e-06 -7.46802e-06 -7.46679e-06 -7.40424e-06 -7.34325e-06 -7.33838e-06 -7.25527e-06 -7.26513e-06 -7.23355e-06 -7.20904e-06 -7.11598e-06 -7.07341e-06 -6.96896e-06 -6.95814e-06 -7.03978e-06 -7.17957e-06 -7.16369e-06 -7.17409e-06 -7.072e-06 -6.97079e-06 -6.86784e-06 -6.94488e-06 -6.92616e-06 -6.84453e-06 -6.79961e-06 -6.86346e-06 -6.99313e-06 -7.0405e-06 -7.00274e-06 -6.94142e-06 -7.00575e-06 -6.9643e-06 -6.95447e-06 -6.86246e-06 -6.89286e-06 -6.86477e-06 -6.96986e-06 -6.93733e-06 -6.93755e-06 -6.93844e-06 -6.89613e-06 -6.92778e-06 -6.84698e-06 -6.80219e-06 -6.77768e-06 -6.82947e-06 -6.88344e-06 -6.88798e-06 -6.75433e-06 -6.61414e-06 -6.58645e-06 -6.74321e-06 -6.79054e-06 -6.80513e-06 -6.77533e-06 -6.86357e-06 -6.81808e-06 -6.87826e-06 -6.84573e-06 -6.86491e-06 -6.872e-06 -6.81924e-06 -6.69298e-06 -6.55711e-06 -6.62036e-06 -6.67884e-06 -6.59426e-06 -6.59625e-06 -6.54306e-06 -6.50744e-06 -6.41132e-06 -6.49865e-06 -6.50451e-06 -6.48213e-06 -6.37596e-06 -6.30398e-06 -6.39108e-06 -6.30398e-06 -6.37596e-06 -6.48213e-06 -6.50451e-06 -6.49865e-06 -6.41132e-06 -6.50744e-06 -6.54306e-06 -6.59625e-06 -6.59426e-06 -6.67884e-06 -6.62036e-06 -6.55711e-06 -6.69298e-06 -6.81924e-06 -6.872e-06 -6.86491e-06 -6.84573e-06 -6.87826e-06 -6.81808e-06 -6.86357e-06 -6.77534e-06 -6.80513e-06 -6.79054e-06 -6.74322e-06 -6.58646e-06 -6.61415e-06 -6.75434e-06 -6.88798e-06 -6.88346e-06 -6.82949e-06 -6.77767e-06 -6.80217e-06 -6.84695e-06 -6.92775e-06 -6.89611e-06 -6.93843e-06 -6.93755e-06 -6.93734e-06 -6.96988e-06 -6.86481e-06 -6.89288e-06 -6.86245e-06 -6.95447e-06 -6.96432e-06 -7.00582e-06 -6.94149e-06 -7.00278e-06 -7.04045e-06 -6.99292e-06 -6.86305e-06 -6.79904e-06 -6.84385e-06 -6.92541e-06 -6.94399e-06 -6.86669e-06 -6.969e-06 -7.06926e-06 -7.17087e-06 -7.16176e-06 -7.1806e-06 -7.04365e-06 -6.96269e-06 -6.97154e-06 -7.07308e-06 -7.11382e-06 -7.20658e-06 -7.2312e-06 -7.26237e-06 -7.25146e-06 -7.33368e-06 -7.33902e-06 -7.40201e-06 -7.46687e-06 -7.47097e-06 -7.55323e-06 -7.66678e-06 -7.69546e-06 -7.70583e-06 -7.8445e-06 -7.94765e-06 -7.9233e-06 -7.9515e-06 -8.03991e-06 -8.114e-06 -8.1941e-06 -8.18606e-06 -8.16789e-06 -8.1531e-06 -8.23411e-06 -8.25808e-06 -8.31226e-06 -8.3986e-06 -8.4489e-06 -8.5806e-06 -8.5806e-06 -8.64853e-06 -8.60425e-06 -8.65124e-06 -8.74596e-06 -8.73802e-06 -8.79779e-06 -8.79182e-06 -8.74937e-06 -8.82658e-06 -8.87061e-06 -8.88534e-06 -8.90208e-06 -8.98847e-06 -9.09524e-06 -9.13074e-06 -9.27851e-06 -9.29614e-06 -9.41671e-06 -9.54669e-06 -9.54569e-06 -9.65909e-06 -9.69694e-06 -9.73172e-06 -9.90033e-06 -1.02332e-05 -1.06615e-05 -1.13742e-05 -1.24777e-05 -1.4014e-05 -1.61777e-05 -1.92917e-05 -2.35423e-05 -2.90719e-05 -3.64548e-05 -4.54977e-05 -5.63492e-05 -6.9188e-05 -8.38423e-05 -0.000100482 -0.000119556 -0.000141777 -0.000168216 -0.00020092 -0.000242645 -0.000296693 -0.000367215 -0.000458404 -0.000574146 -0.000717312 -0.000889633 -0.00109057 -0.00131734 -0.00156469 -0.00182503 -0.00208897 -0.00234545 -0.00258312 -0.00279027 -0.00295628 -0.00307187 -0.00312933 -0.00312299 -0.00304929 -0.0029065 -0.002695 -0.00241677 -0.00207596 -0.00167797 -0.00122923 -0.00073796 -0.000212945 0.000336059 0.000898597 0.00146417 0.00202233 0.00256235 0.00307389 0.00354742 0.00397425 0.00434669 0.00465825 0.00490358 0.0050791 0.00518285 0.00521445 0.00517539 0.00506858 0.00489866 0.00467161 0.00439396 0.00407346 0.00371798 0.00333531 0.0029329 0.0025184 0.00209917 0.00168261 0.0012757 0.000885332 0.000518052 0.000179388 -0.000125891 -0.000394509 -0.000625111 -0.000817434 -0.000973104 -0.00109501 -0.00118716 -0.00125374 -0.00129908 -0.00132754 -0.00134253 -0.00134753 -0.00134474 -0.00133607 -0.00132304 -0.00130675 -0.00128791 -0.00126702 -0.00124466 -0.00122088 -0.00119615 -0.00117026 -0.00114348 -0.00111599 -0.00108787 -0.00105921 -0.00103029 -0.00100094 -0.000971323 -0.000941746 -0.000912124 -0.00088258 -0.000853291 -0.000824389 -0.000795693 -0.00076746 -0.000739753 -0.000712648 -0.000686064 -0.000660193 -0.000634921 -0.0006104 -0.0005866 -0.000563692 -0.000541256 -0.000519541 -0.000498596 -0.00047852 -0.000459078 -0.000440217 -0.000422031 -0.000404475 -0.000387682 -0.000371653 -0.000356169 -0.000341217 -0.000326909 -0.000313124 -0.000299827 -0.000287233 -0.000275156 -0.00026333 -0.000251965 -0.000241266 -0.00023108 -0.000221181 -0.00021164 -0.000202366 -0.00019349 -0.000185009 -0.000176749 -0.000168912 -0.000161281 -0.000153721 -0.000146513 -0.000139544 -0.000132694 -0.000125809 -0.000118921 -0.000111922 -0.000104859 -9.77502e-05 -9.04442e-05 -8.32288e-05 -7.61885e-05 -6.91515e-05 -6.24266e-05 -5.60078e-05 -4.97748e-05 -4.37585e-05 -3.81185e-05 -3.29091e-05 -2.8086e-05 -2.36978e-05 -1.97953e-05 -1.63453e-05 -1.33203e-05 -1.06781e-05 -8.23606e-06 -3.94743e-06 0 0 