<?xml version="1.0"?>
<VTKFile type="ImageData" version="0.1" byte_order="LittleEndian">
<ImageData WholeExtent="0 599 0 599 0 0" Origin="0 0 0" Spacing="5 5 0">
<Piece Extent="0 599 0 599 0 0">
<PointData Scalars="Amplitude">
<DataArray type="Float32" Name="Amplitude" format="ascii">
0 0 0 0 0 0 0 0 0 0 0 0 0 0 0 0 0 0 0 0 0 0 0 0 0 0 0 0 0 0 0 0 0 0 0 0 0 0 0 0 0 0 0 0 0 0 0 0 0 0 0 0 0 0 0 0 0 0 0 0 0 0 0 0 0 0 0 0 0 0 0 0 0 0 0 0 0 0 0 0 0 0 0 0 0 0 0 0 0 0 0 0 0 0 0 0 0 0 0 0 0 0 0 0 0 0 0 0 0 0 0 0 0 0 0 0 0 0 0 0 0 0 0 0 0 0 0 0 0 0 0 0 0 0 0 0 0 0 0 0 0 0 0 0 0 0 0 0 0 0 0 0 0 0 0 0 0 0 0 0 0 0 0 0 0 0 0 0 0 0 0 0 0 0 0 0 0 0 0 0 0 0 0 0 0 0 0 0 0 0 0 0 0 0 0 0 0 0 0 0 0 0 0 0 0 0 0 0 0 0 0 0 0 0 0 0 0 0 0 0 0 0 0 0 0 0 0 0 0 0 0 0 0 0 0 0 0 0 0 0 0 0 0 0 0 0 0 0 0 0 0 0 0 0 0 0 0 0 0 0 0 0 0 0 0 0 0 0 0 0 0 0 0 0 0 0 0 0 0 0 0 0 0 0 0 0 0 0 0 0 0 0 0 0 0 0 0 0 0 0 0 0 0 0 0 0 0 0 0 0 0 0 0 0 0 0 0 0 0 0 0 0 0 0 0 0 0 0 0 0 0 0 0 0 0 0 0 0 0 0 0 0 0 0 0 0 0 0 0 0 0 0 0 0 0 0 0 0 0 0 0 0 0 0 0 0 0 0 0 0 0 0 0 0 0 0 0 0 0 0 0 0 0 0 0 0 0 0 0 0 0 0 0 0 0 0 0 0 0 0 0 0 0 0 0 0 0 0 0 0 0 0 0 0 0 0 0 0 0 0 0 0 0 0 0 0 0 0 0 0 0 0 0 0 0 0 0 0 0 0 0 0 0 0 0 0 0 0 0 0 0 0 0 0 0 0 0 0 0 0 0 0 0 0 0 0 0 0 0 0 0 0 0 0 0 0 0 0 0 0 0 0 0 0 0 0 0 0 0 0 0 0 0 0 0 0 0 0 0 0 0 0 0 0 0 0 0 0 0 0 0 0 0 0 0 0 0 0 0 0 0 0 0 0 0 0 0 0 0 0 0 0 0 0 0 0 0 0 0 0 0 0 0 0 0 0 0 0 0 0 0 0 0 0 0 0 0 0 0 0 0 0 0 0 0 0 0 0 0 0 0 0 0 0 0 0 0 0 0 0 0 0 0 0 0 0 0 0 0 0 0 0 0 0 0 0 0 0 0 0 
0 0 0 0 0 0 0 0 0 0 0 0 0 0 0 0 0 0 0 0 0 0 0 0 0 0 0 0 0 0 0 0 0 0 0 0 0 0 0 0 0 0 0 0 0 0 0 0 0 0 0 0 0 0 0 0 0 0 0 0 0 0 0 0 0 0 0 0 0 0 0 0 0 0 0 0 0 0 0 0 0 0 0 0 0 0 0 0 0 0 0 0 0 0 0 0 0 0 0 0 0 0 0 0 0 0 0 0 0 0 0 0 0 0 0 0 0 0 0 0 0 0 0 0 0 0 0 0 0 0 0 0 0 0 0 0 0 0 0 0 0 0 0 0 0 0 0 0 0 0 0 0 0 0 0 0 0 0 0 0 0 0 0 0 0 0 0 0 0 0 0 0 0 0 0 0 0 0 0 0 0 0 0 0 0 0 0 0 0 0 0 0 0 0 0 0 0 0 0 0 0 0 0 0 0 0 0 0 0 0 0 0 0 0 0 0 0 0 0 0 0 0 0 0 0 0 0 0 0 0 0 0 0 0 0 0 0 0 0 0 0 0 0 0 0 0 0 0 0 0 0 0 0 0 0 0 0 0 0 0 0 0 0 0 0 0 0 0 0 0 0 0 0 0 0 0 0 0 0 0 0 0 0 0 0 0 0 0 0 0 0 0 0 0 0 0 0 0 0 0 0 0 0 0 0 0 0 0 0 0 0 0 0 0 0 0 0 0 0 0 0 0 0 0 0 0 0 0 0 0 0 0 0 0 0 0 0 0 0 0 0 0 0 0 0 0 0 0 0 0 0 0 0 0 0 0 0 0 0 0 0 0 0 0 0 0 0 0 0 0 0 0 0 0 0 0 0 0 0 0 0 0 0 0 0 0 0 0 0 0 0 0 0 0 0 0 0 0 0 0 0 0 0 0 0 0 0 0 0 0 0 0 0 0 0 0 0 0 0 0 0 0 0 0 0 0 0 0 0 0 0 0 0 0 0 0 0 0 0 0 0 0 0 0 0 0 0 0 0 0 0 0 0 0 0 0 0 0 0 0 0 0 0 0 0 0 0 0 0 0 0 0 0 0 0 0 0 0 0 0 0 0 0 0 0 0 0 0 0 0 0 0 0 0 0 0 0 0 0 0 0 0 0 0 0 0 0 0 0 0 0 0 0 0 0 0 0 0 0 0 0 0 0 0 0 0 0 0 0 0 0 0 0 0 0 0 0 0 0 0 0 0 0 0 0 0 0 0 0 0 0 0 0 0 0 0 0 0 0 0 0 0 0 0 0 0 0 0 0 0 0 0 0 0 0 0 0 0 0 0 0 0 0 0 0 0 0 0 0 0 0 0 0 0 0 0 0 0 0 0 
0 0 -7.88648e-45 -1.17298e-43 -4.10965e-43 -4.98092e-43 4.25042e-42 2.48131e-41 3.82354e-41 -1.95254e-40 -1.28446e-39 -2.47165e-39 6.48734e-39 5.41933e-38 1.27893e-37 -1.31856e-37 -1.86452e-36 -5.37647e-36 -3.53054e-37 5.18781e-35 1.86689e-34 1.67874e-34 -1.12865e-33 -5.43002e-33 -8.8264e-33 1.66822e-32 1.33078e-31 3.17816e-31 -1.55298e-32 -2.67528e-30 -9.09681e-30 -9.83024e-30 3.84125e-29 2.09542e-28 4.24482e-28 -1.40254e-28 -3.68801e-27 -1.16553e-26 -1.30054e-26 3.98085e-26 2.30034e-25 5.09882e-25 1.5038e-25 -2.98513e-24 -1.12659e-23 -1.87215e-23 9.9535e-24 1.55519e-22 4.68726e-22 6.23747e-22 -7.76385e-22 -6.4613e-21 -1.7361e-20 -2.0853e-20 3.03162e-20 2.22728e-19 5.84509e-19 7.42481e-19 -6.84398e-19 -6.30609e-18 -1.76488e-17 -2.6625e-17 7.5072e-19 1.36309e-16 4.52639e-16 8.51004e-16 6.80252e-16 -1.71929e-15 -8.82989e-15 -2.14737e-14 -3.18184e-14 -1.15278e-14 9.76646e-14 3.67878e-13 8.00755e-13 1.12867e-12 5.10388e-13 -2.70025e-12 -1.06241e-11 -2.41151e-11 -3.86605e-11 -3.77313e-11 1.42749e-11 1.73042e-10 4.97287e-10 9.97545e-10 1.53707e-09 1.68622e-09 5.63987e-10 -3.25138e-09 -1.16078e-08 -2.62883e-08 -4.79693e-08 -7.45032e-08 -9.84673e-08 -1.03959e-07 -6.2506e-08 7.23699e-08 3.73069e-07 9.50314e-07 1.97308e-06 3.69995e-06 6.52615e-06 1.10506e-05 1.8166e-05 2.9175e-05 4.59321e-05 7.10118e-05 0.0001079 0.000161203 0.000236869 0.000342399 0.000487031 0.000681868 0.00093989 0.00127582 0.0017058 0.00224679 0.0029157 0.00372823 0.00469739 0.0058318 0.0071338 0.00859748 0.0102068 0.0119338 0.0137377 0.015564 0.0173448 0.019 0.0204399 0.0215678 0.0222851 0.0224961 0.0221137 0.0210653 0.019299 0.0167878 0.0135348 0.00957457 0.00497496 -0.000164344 -0.00571455 -0.0115229 -0.0174187 -0.0232211 -0.0287477 -0.0338227 -0.0382856 -0.0419984 -0.0448518 -0.0467695 -0.0477111 -0.0476725 -0.0466846 -0.0448106 -0.0421409 -0.0387883 -0.0348811 -0.030557 -0.0259565 -0.0212169 -0.0164672 -0.011824 -0.00738789 -0.00324216 0.000548993 0.00394009 0.00690357 0.00942817 0.0115172 0.013186 0.0144594 0.0153695 0.0159533 0.0162503 0.016301 0.0161453 0.0158215 0.0153646 0.0148069 0.0141766 0.0134983 0.0127928 0.0120774 0.0113658 0.0106689 0.00999479 0.00934939 0.0087367 0.00815917 0.00761802 0.00711339 0.00664473 0.00621079 0.00580998 0.00544047 0.00510016 0.00478703 0.00449907 0.00423434 0.00399092 0.00376703 0.00356095 0.00337109 0.00319596 0.00303417 0.00288462 0.00274613 0.0026176 0.00249826 0.00238736 0.00228407 0.00218772 0.00209782 0.00201375 0.00193506 0.00186128 0.00179194 0.00172669 0.0016653 0.00160745 0.0015529 0.00150137 0.0014527 0.00140663 0.00136294 0.00132148 0.0012822 0.00124488 0.00120937 0.00117555 0.00114332 0.00111265 0.00108343 0.00105555 0.00102898 0.00100359 0.000979329 0.000956164 0.000934092 0.000912948 0.000892679 0.000873292 0.000854726 0.000836872 0.000819651 0.000803172 0.000787419 0.00077228 0.000757736 0.000743772 0.000730416 0.000717541 0.000705151 0.000693254 0.000681822 0.000670848 0.000660227 0.00065002 0.000640222 0.000630816 0.0006218 0.000613208 0.000605015 0.000597164 0.000589615 0.000582343 0.000575321 0.000568604 0.000562179 0.000556037 0.00055021 0.000544636 0.000539362 0.000534362 0.000529492 0.00052487 0.0005205 0.000516402 0.000512567 0.000508881 0.000505323 0.000502002 0.000498898 0.000496057 0.000493453 0.000491043 0.000488733 0.000486585 0.000484592 0.000482902 0.000481449 0.000480191 0.000479068 0.000478053 0.000477145 0.000476514 0.000476142 0.000475982 0.000475958 0.000475982 0.000476142 0.000476514 0.000477145 0.000478053 0.000479068 0.000480191 0.000481449 0.000482902 0.000484592 0.000486585 0.000488733 0.000491043 0.000493453 0.000496057 0.000498898 0.000502002 0.000505323 0.000508881 0.000512567 0.000516402 0.0005205 0.00052487 0.000529492 0.000534362 0.000539362 0.000544636 0.00055021 0.000556037 0.000562179 0.000568604 0.000575321 0.000582343 0.000589615 0.000597164 0.000605015 0.000613208 0.0006218 0.000630816 0.000640222 0.00065002 0.000660227 0.000670848 0.000681822 0.000693254 0.000705151 0.000717541 0.000730416 0.000743772 0.000757736 0.00077228 0.000787419 0.000803172 0.000819651 0.000836872 0.000854726 0.000873292 0.000892679 0.000912948 0.000934092 0.000956164 0.000979329 0.00100359 0.00102898 0.00105555 0.00108343 0.00111265 0.00114332 0.00117555 0.00120937 0.00124488 0.0012822 0.00132148 0.00136294 0.00140663 0.0014527 0.00150137 0.0015529 0.00160745 0.0016653 0.00172669 0.00179194 0.00186128 0.00193506 0.00201375 0.00209782 0.00218772 0.00228407 0.00238736 0.00249826 0.0026176 0.00274613 0.00288462 0.00303417 0.00319596 0.00337109 0.00356095 0.00376703 0.00399092 0.00423434 0.00449907 0.00478703 0.00510016 0.00544047 0.00580998 0.00621079 0.00664473 0.00711339 0.00761802 0.00815917 0.0087367 0.00934939 0.00999479 0.0106689 0.0113658 0.0120774 0.0127928 0.0134983 0.0141766 0.0148069 0.0153646 0.0158215 0.0161453 0.016301 0.0162503 0.0159533 0.0153695 0.0144594 0.013186 0.0115172 0.00942817 0.00690357 0.00394009 0.000548993 -0.00324216 -0.00738789 -0.011824 -0.0164672 -0.0212169 -0.0259565 -0.030557 -0.0348811 -0.0387883 -0.0421409 -0.0448106 -0.0466846 -0.0476725 -0.0477111 -0.0467695 -0.0448518 -0.0419984 -0.0382856 -0.0338227 -0.0287477 -0.0232211 -0.0174187 -0.0115229 -0.00571455 -0.000164344 0.00497496 0.00957457 0.0135348 0.0167878 0.019299 0.0210653 0.0221137 0.0224961 0.0222851 0.0215678 0.0204399 0.019 0.0173448 0.015564 0.0137377 0.0119338 0.0102068 0.00859748 0.0071338 0.0058318 0.00469739 0.00372823 0.0029157 0.00224679 0.0017058 0.00127582 0.00093989 0.000681868 0.000487031 0.000342399 0.000236869 0.000161203 0.0001079 7.10118e-05 4.59321e-05 2.9175e-05 1.8166e-05 1.10506e-05 6.52615e-06 3.69995e-06 1.97308e-06 9.50314e-07 3.73069e-07 7.23699e-08 -6.2506e-08 -1.03959e-07 -9.84673e-08 -7.45032e-08 -4.79693e-08 -2.62883e-08 -1.16078e-08 -3.25138e-09 5.63987e-10 1.68622e-09 1.53707e-09 9.97545e-10 4.97287e-10 1.73042e-10 1.42749e-11 -3.77313e-11 -3.86605e-11 -2.41151e-11 -1.06241e-11 -2.70025e-12 5.10388e-13 1.12867e-12 8.00755e-13 3.67878e-13 9.76646e-14 -1.15278e-14 -3.18184e-14 -2.14737e-14 -8.82989e-15 -1.71929e-15 6.80252e-16 8.51004e-16 4.52639e-16 1.36309e-16 7.5072e-19 -2.6625e-17 -1.76488e-17 -6.30609e-18 -6.84398e-19 7.42481e-19 5.84509e-19 2.22728e-19 3.03162e-20 -2.0853e-20 -1.7361e-20 -6.4613e-21 -7.76385e-22 6.23747e-22 4.68726e-22 1.55519e-22 9.9535e-24 -1.87215e-23 -1.12659e-23 -2.98513e-24 1.5038e-25 5.09882e-25 2.30034e-25 3.98085e-26 -1.30054e-26 -1.16553e-26 -3.68801e-27 -1.40254e-28 4.24481e-28 2.09542e-28 3.84125e-29 -9.83022e-30 -9.09679e-30 -2.67532e-30 -1.58479e-32 3.16832e-31 1.32676e-31 1.66393e-32 -8.80063e-33 -5.4152e-33 -1.12569e-33 1.67401e-34 1.86193e-34 5.17429e-35 -3.51726e-37 -5.36249e-36 -1.85973e-36 -1.31524e-37 1.27567e-37 5.40562e-38 6.47103e-39 -2.46545e-39 -1.28123e-39 -1.94758e-40 3.81554e-41 2.47638e-41 4.22253e-42 -5.20612e-43 -3.42541e-43 -1.1862e-43 0 0 
0 0 -1.17298e-43 -4.43243e-43 -8.76295e-43 3.87825e-42 2.91792e-41 6.0698e-41 -1.773e-40 -1.55112e-39 -3.74181e-39 5.34425e-39 6.66054e-38 1.8853e-37 -5.8555e-38 -2.30417e-36 -7.79757e-36 -4.29513e-36 6.32216e-35 2.66989e-34 3.38601e-34 -1.30154e-33 -7.62507e-33 -1.48454e-32 1.54828e-32 1.81375e-31 4.93466e-31 1.78831e-31 -3.47254e-30 -1.34264e-29 -1.81813e-29 4.45585e-29 2.96796e-28 6.75297e-28 4.46697e-29 -4.96809e-27 -1.74326e-26 -2.32783e-26 4.70038e-26 3.29011e-25 7.97294e-25 4.36807e-25 -4.00167e-24 -1.67037e-23 -3.0442e-23 6.11802e-24 2.19342e-22 7.11321e-22 1.04429e-21 -8.66546e-22 -9.36954e-21 -2.67068e-20 -3.51767e-20 3.68707e-20 3.28248e-19 9.04615e-19 1.23187e-18 -8.03321e-19 -9.37474e-18 -2.73584e-17 -4.31425e-17 -4.46652e-18 2.0292e-16 7.01918e-16 1.35711e-15 1.1655e-15 -2.50358e-15 -1.3697e-14 -3.40309e-14 -5.15322e-14 -2.13175e-14 1.50576e-13 5.83119e-13 1.28595e-12 1.8369e-12 8.80447e-13 -4.26816e-12 -1.71156e-11 -3.91731e-11 -6.32259e-11 -6.22903e-11 2.23182e-11 2.83194e-10 8.19287e-10 1.65127e-09 2.5557e-09 2.8181e-09 9.58559e-10 -5.43513e-09 -1.95392e-08 -4.44908e-08 -8.16361e-08 -1.27572e-07 -1.69818e-07 -1.80997e-07 -1.11188e-07 1.22458e-07 6.50859e-07 1.6765e-06 3.5106e-06 6.63104e-06 1.17688e-05 2.00311e-05 3.30681e-05 5.32891e-05 8.41299e-05 0.000130373 0.000198518 0.000297189 0.000437566 0.000633819 0.000903478 0.00126771 0.0017514 0.00238295 0.00319372 0.00421698 0.00548633 0.00703359 0.00888603 0.0110632 0.013573 0.0164085 0.0195435 0.0229294 0.0264927 0.0301333 0.033725 0.0371164 0.0401356 0.042596 0.044304 0.0450687 0.0447126 0.0430833 0.0400649 0.0355877 0.0296375 0.0222609 0.0135686 0.00373433 -0.00700952 -0.01838 -0.0300549 -0.041687 -0.0529194 -0.0634023 -0.0728089 -0.080851 -0.0872906 -0.091951 -0.0947232 -0.0955674 -0.0945132 -0.0916553 -0.0871449 -0.0811811 -0.0739996 -0.0658595 -0.0570312 -0.0477853 -0.0383812 -0.0290583 -0.0200294 -0.011475 -0.00354073 0.00366378 0.0100643 0.0156197 0.0203187 0.0241759 0.0272276 0.0295263 0.0311369 0.0321324 0.0325898 0.0325866 0.032199 0.0314991 0.0305534 0.029422 0.0281581 0.0268075 0.0254093 0.0239953 0.0225916 0.0212181 0.0198902 0.018619 0.017412 0.0162738 0.0152065 0.0142105 0.0132844 0.012426 0.0116323 0.0108997 0.0102245 0.00960263 0.0090303 0.00850364 0.00801892 0.00757264 0.00716145 0.00678223 0.00643222 0.00610873 0.00580942 0.00553207 0.00527474 0.00503567 0.00481328 0.00460612 0.00441293 0.00423243 0.00406367 0.00390558 0.00375723 0.00361786 0.00348679 0.00336334 0.00324698 0.00313719 0.00303353 0.00293542 0.00284253 0.00275457 0.00267111 0.00259187 0.00251654 0.00244493 0.00237677 0.00231193 0.00225025 0.00219146 0.00213531 0.00208172 0.00203057 0.00198162 0.00193488 0.00189017 0.0018473 0.00180622 0.00176689 0.00172916 0.001693 0.00165833 0.00162503 0.00159302 0.00156235 0.00153288 0.0015046 0.00147743 0.00145136 0.00142627 0.00140217 0.00137904 0.00135682 0.0013355 0.00131502 0.00129536 0.00127646 0.00125825 0.00124081 0.00122415 0.0012082 0.00119291 0.00117822 0.00116413 0.00115055 0.00113759 0.00112528 0.00111349 0.00110217 0.00109141 0.00108112 0.00107132 0.00106199 0.00105317 0.00104482 0.00103691 0.00102939 0.0010223 0.00101558 0.00100931 0.00100347 0.000998038 0.000993053 0.000988499 0.00098425 0.000980337 0.00097681 0.000973709 0.000970954 0.000968584 0.000966576 0.000964985 0.000963784 0.000962924 0.00096244 0.000962283 0.00096244 0.000962924 0.000963784 0.000964985 0.000966576 0.000968584 0.000970954 0.000973709 0.00097681 0.000980337 0.00098425 0.000988499 0.000993053 0.000998038 0.00100347 0.00100931 0.00101558 0.0010223 0.00102939 0.00103691 0.00104482 0.00105317 0.00106199 0.00107132 0.00108112 0.00109141 0.00110217 0.00111349 0.00112528 0.00113759 0.00115055 0.00116413 0.00117822 0.00119291 0.0012082 0.00122415 0.00124081 0.00125825 0.00127646 0.00129536 0.00131502 0.0013355 0.00135682 0.00137904 0.00140217 0.00142627 0.00145136 0.00147743 0.0015046 0.00153288 0.00156235 0.00159302 0.00162503 0.00165833 0.001693 0.00172916 0.00176689 0.00180622 0.0018473 0.00189017 0.00193488 0.00198162 0.00203057 0.00208172 0.00213531 0.00219146 0.00225025 0.00231193 0.00237677 0.00244493 0.00251654 0.00259187 0.00267111 0.00275457 0.00284253 0.00293542 0.00303353 0.00313719 0.00324698 0.00336334 0.00348679 0.00361786 0.00375723 0.00390558 0.00406367 0.00423243 0.00441293 0.00460612 0.00481328 0.00503567 0.00527474 0.00553207 0.00580942 0.00610873 0.00643222 0.00678223 0.00716145 0.00757264 0.00801892 0.00850364 0.0090303 0.00960263 0.0102245 0.0108997 0.0116323 0.012426 0.0132844 0.0142105 0.0152065 0.0162738 0.017412 0.018619 0.0198902 0.0212181 0.0225916 0.0239953 0.0254093 0.0268075 0.0281581 0.029422 0.0305534 0.0314991 0.032199 0.0325866 0.0325898 0.0321324 0.0311369 0.0295263 0.0272276 0.0241759 0.0203187 0.0156197 0.0100643 0.00366378 -0.00354073 -0.011475 -0.0200294 -0.0290583 -0.0383812 -0.0477853 -0.0570312 -0.0658595 -0.0739996 -0.0811811 -0.0871449 -0.0916553 -0.0945132 -0.0955674 -0.0947232 -0.091951 -0.0872906 -0.080851 -0.0728089 -0.0634023 -0.0529194 -0.041687 -0.0300549 -0.01838 -0.00700952 0.00373433 0.0135686 0.0222609 0.0296375 0.0355877 0.0400649 0.0430833 0.0447126 0.0450687 0.044304 0.042596 0.0401356 0.0371164 0.033725 0.0301333 0.0264927 0.0229294 0.0195435 0.0164085 0.013573 0.0110632 0.00888603 0.00703359 0.00548633 0.00421698 0.00319372 0.00238295 0.0017514 0.00126771 0.000903478 0.000633819 0.000437566 0.000297189 0.000198518 0.000130373 8.41299e-05 5.32891e-05 3.30681e-05 2.00311e-05 1.17688e-05 6.63104e-06 3.5106e-06 1.6765e-06 6.50859e-07 1.22458e-07 -1.11188e-07 -1.80997e-07 -1.69818e-07 -1.27572e-07 -8.16361e-08 -4.44908e-08 -1.95392e-08 -5.43513e-09 9.58559e-10 2.8181e-09 2.5557e-09 1.65127e-09 8.19287e-10 2.83194e-10 2.23182e-11 -6.22903e-11 -6.32259e-11 -3.91731e-11 -1.71156e-11 -4.26816e-12 8.80447e-13 1.8369e-12 1.28595e-12 5.83119e-13 1.50576e-13 -2.13175e-14 -5.15322e-14 -3.40309e-14 -1.3697e-14 -2.50358e-15 1.1655e-15 1.35711e-15 7.01918e-16 2.0292e-16 -4.46652e-18 -4.31425e-17 -2.73584e-17 -9.37474e-18 -8.03321e-19 1.23187e-18 9.04615e-19 3.28248e-19 3.68707e-20 -3.51767e-20 -2.67068e-20 -9.36954e-21 -8.66546e-22 1.04429e-21 7.11321e-22 2.19342e-22 6.11802e-24 -3.0442e-23 -1.67037e-23 -4.00167e-24 4.36807e-25 7.97293e-25 3.29011e-25 4.70038e-26 -2.32783e-26 -1.74326e-26 -4.96809e-27 4.46687e-29 6.75297e-28 2.96796e-28 4.45586e-29 -1.81813e-29 -1.34268e-29 -3.47372e-30 1.76977e-31 4.91906e-31 1.80877e-31 1.54444e-32 -1.48045e-32 -7.60466e-33 -1.29816e-33 3.37687e-34 2.66289e-34 6.30581e-35 -4.28371e-36 -7.7775e-36 -2.29829e-36 -5.8409e-38 1.88053e-37 6.64377e-38 5.33085e-39 -3.73247e-39 -1.54726e-39 -1.76864e-40 6.05303e-41 2.90604e-41 3.97691e-42 8.61692e-44 -3.52297e-43 0 0 
0 0 -4.10965e-43 -8.76295e-43 1.96616e-43 2.31624e-41 9.16896e-41 2.67062e-41 -1.20365e-39 -5.13102e-39 -4.19272e-39 4.87683e-38 2.36569e-37 3.16335e-37 -1.50594e-36 -8.99608e-36 -1.67312e-35 3.22631e-35 2.82205e-34 6.85537e-34 -2.62454e-34 -7.25365e-33 -2.28297e-32 -1.47082e-32 1.47924e-31 6.34976e-31 9.34497e-31 -2.07982e-30 -1.48423e-29 -3.41027e-29 1.9896e-30 2.7729e-28 9.37237e-28 1.07636e-27 -3.45489e-27 -1.99714e-26 -4.28835e-26 -6.96024e-28 3.07933e-25 1.06098e-24 1.46866e-24 -2.33563e-24 -1.80539e-23 -4.60164e-23 -3.723e-23 1.74592e-22 8.3688e-22 1.74366e-21 6.93591e-22 -8.41406e-21 -3.28524e-20 -6.12409e-20 -1.40849e-20 3.0793e-19 1.12348e-18 2.06821e-18 7.69232e-19 -8.66238e-18 -3.32878e-17 -6.63232e-17 -5.03731e-17 1.68489e-16 8.15062e-16 1.89279e-15 2.37324e-15 -1.07623e-15 -1.46e-14 -4.33755e-14 -7.77213e-14 -6.51815e-14 1.21024e-13 6.7149e-13 1.68955e-12 2.76915e-12 2.25621e-12 -3.50301e-12 -1.98991e-11 -5.07818e-11 -8.96043e-11 -1.03669e-10 -1.51246e-11 3.07504e-10 1.01926e-09 2.1898e-09 3.57658e-09 4.27311e-09 2.30048e-09 -5.67067e-09 -2.41423e-08 -5.77229e-08 -1.08724e-07 -1.73076e-07 -2.34396e-07 -2.56162e-07 -1.71719e-07 1.28995e-07 8.18648e-07 2.16264e-06 4.56767e-06 8.65856e-06 1.53943e-05 2.62342e-05 4.33629e-05 6.99806e-05 0.000110662 0.000171779 0.000261992 0.000392781 0.000579015 0.000839493 0.00119743 0.00168077 0.00232224 0.00315899 0.00423176 0.00558333 0.00725631 0.00929007 0.011717 0.0145582 0.0178184 0.0214809 0.0255031 0.0298118 0.0343005 0.0388279 0.0432192 0.0472687 0.0507463 0.0534069 0.0550012 0.0552895 0.0540568 0.0511276 0.0463808 0.0397623 0.0312948 0.0210839 0.00931911 -0.00372927 -0.0177196 -0.0322515 -0.0468841 -0.0611555 -0.0746052 -0.0867965 -0.0973366 -0.105896 -0.112222 -0.116149 -0.117607 -0.116615 -0.113283 -0.107799 -0.100415 -0.0914364 -0.081202 -0.070068 -0.0583913 -0.0465144 -0.0347546 -0.0233915 -0.0126626 -0.00275737 0.00618351 0.0140675 0.0208461 0.0265113 0.0310896 0.0346349 0.0372229 0.0389449 0.0399007 0.040195 0.039932 0.0392119 0.038129 0.0367688 0.0352076 0.0335118 0.0317375 0.0299318 0.028132 0.0263677 0.0246612 0.0230286 0.0214805 0.0200236 0.0186607 0.0173925 0.0162172 0.0151317 0.0141315 0.0132116 0.0123668 0.0115916 0.0108802 0.0102278 0.00962922 0.00907962 0.00857465 0.0081102 0.00768242 0.00728786 0.00692332 0.0065862 0.0062741 0.00598437 0.00571508 0.00546459 0.00523103 0.00501291 0.00480909 0.00461847 0.00443959 0.00427181 0.00411403 0.00396551 0.00382564 0.00369359 0.00356856 0.00345044 0.00333879 0.00323318 0.00313278 0.00303746 0.00294707 0.00286107 0.00277906 0.00270102 0.00262665 0.00255573 0.00248831 0.00242405 0.00236262 0.00230386 0.00224761 0.00219395 0.00214248 0.00209317 0.00204584 0.00200044 0.00195682 0.00191486 0.00187457 0.00183611 0.00179921 0.00176364 0.00172935 0.00169656 0.00166512 0.00163482 0.00160555 0.00157748 0.00155048 0.00152449 0.00149954 0.00147553 0.00145266 0.00143067 0.00140948 0.00138909 0.0013694 0.00135045 0.00133232 0.001315 0.00129835 0.00128241 0.00126726 0.00125257 0.00123853 0.00122523 0.0012124 0.00120009 0.00118832 0.001177 0.00116649 0.00115634 0.00114673 0.00113757 0.00112881 0.00112059 0.00111291 0.0011056 0.0010988 0.00109235 0.00108642 0.00108095 0.00107608 0.00107148 0.00106733 0.00106335 0.00105988 0.00105673 0.00105402 0.00105181 0.00105018 0.00104884 0.00104782 0.00104724 0.00104706 0.00104724 0.00104782 0.00104884 0.00105018 0.00105181 0.00105402 0.00105673 0.00105988 0.00106335 0.00106733 0.00107148 0.00107608 0.00108095 0.00108642 0.00109235 0.0010988 0.0011056 0.00111291 0.00112059 0.00112881 0.00113757 0.00114673 0.00115634 0.00116649 0.001177 0.00118832 0.00120009 0.0012124 0.00122523 0.00123853 0.00125257 0.00126726 0.00128241 0.00129835 0.001315 0.00133232 0.00135045 0.0013694 0.00138909 0.00140948 0.00143067 0.00145266 0.00147553 0.00149954 0.00152449 0.00155048 0.00157748 0.00160555 0.00163482 0.00166512 0.00169656 0.00172935 0.00176364 0.00179921 0.00183611 0.00187457 0.00191486 0.00195682 0.00200044 0.00204584 0.00209317 0.00214248 0.00219395 0.00224761 0.00230386 0.00236262 0.00242405 0.00248831 0.00255573 0.00262665 0.00270102 0.00277906 0.00286107 0.00294707 0.00303746 0.00313278 0.00323318 0.00333879 0.00345044 0.00356856 0.00369359 0.00382564 0.00396551 0.00411403 0.00427181 0.00443959 0.00461847 0.00480909 0.00501291 0.00523103 0.00546459 0.00571508 0.00598437 0.0062741 0.0065862 0.00692332 0.00728786 0.00768242 0.0081102 0.00857465 0.00907962 0.00962922 0.0102278 0.0108802 0.0115916 0.0123668 0.0132116 0.0141315 0.0151317 0.0162172 0.0173925 0.0186607 0.0200236 0.0214805 0.0230286 0.0246612 0.0263677 0.028132 0.0299318 0.0317375 0.0335118 0.0352076 0.0367688 0.038129 0.0392119 0.039932 0.040195 0.0399007 0.0389449 0.0372229 0.0346349 0.0310896 0.0265113 0.0208461 0.0140675 0.00618351 -0.00275737 -0.0126626 -0.0233915 -0.0347546 -0.0465144 -0.0583913 -0.070068 -0.081202 -0.0914364 -0.100415 -0.107799 -0.113283 -0.116615 -0.117607 -0.116149 -0.112222 -0.105896 -0.0973366 -0.0867965 -0.0746052 -0.0611555 -0.0468841 -0.0322515 -0.0177196 -0.00372927 0.00931911 0.0210839 0.0312948 0.0397623 0.0463808 0.0511276 0.0540568 0.0552895 0.0550012 0.0534069 0.0507463 0.0472687 0.0432192 0.0388279 0.0343005 0.0298118 0.0255031 0.0214809 0.0178184 0.0145582 0.011717 0.00929007 0.00725631 0.00558333 0.00423176 0.00315899 0.00232224 0.00168077 0.00119743 0.000839493 0.000579015 0.000392781 0.000261992 0.000171779 0.000110662 6.99806e-05 4.33629e-05 2.62342e-05 1.53943e-05 8.65856e-06 4.56767e-06 2.16264e-06 8.18648e-07 1.28995e-07 -1.71719e-07 -2.56162e-07 -2.34396e-07 -1.73076e-07 -1.08724e-07 -5.77229e-08 -2.41423e-08 -5.67067e-09 2.30048e-09 4.27311e-09 3.57658e-09 2.1898e-09 1.01926e-09 3.07504e-10 -1.51246e-11 -1.03669e-10 -8.96043e-11 -5.07818e-11 -1.98991e-11 -3.50301e-12 2.25621e-12 2.76915e-12 1.68955e-12 6.7149e-13 1.21024e-13 -6.51815e-14 -7.77213e-14 -4.33755e-14 -1.46e-14 -1.07623e-15 2.37324e-15 1.89279e-15 8.15062e-16 1.68489e-16 -5.03731e-17 -6.63232e-17 -3.32878e-17 -8.66238e-18 7.69232e-19 2.06821e-18 1.12348e-18 3.0793e-19 -1.40849e-20 -6.12409e-20 -3.28524e-20 -8.41406e-21 6.93591e-22 1.74366e-21 8.3688e-22 1.74592e-22 -3.723e-23 -4.60164e-23 -1.80539e-23 -2.33563e-24 1.46866e-24 1.06098e-24 3.07933e-25 -6.96056e-28 -4.28835e-26 -1.99714e-26 -3.45489e-27 1.07636e-27 9.37236e-28 2.7729e-28 1.98938e-30 -3.41041e-29 -1.48448e-29 -2.07839e-30 9.31377e-31 6.33197e-31 1.47529e-31 -1.46647e-32 -2.2768e-32 -7.2345e-33 -2.61837e-34 6.83727e-34 2.81472e-34 3.21807e-35 -1.6688e-35 -8.97308e-36 -1.50212e-36 3.15533e-37 2.35973e-37 4.8646e-38 -4.18228e-39 -5.11827e-39 -1.20068e-39 2.65858e-41 9.14213e-41 2.39348e-41 3.97745e-42 -5.35313e-43 0 0 
0 0 -4.98092e-43 3.87825e-42 2.31624e-41 8.92855e-41 2.05354e-41 -1.24028e-39 -5.26358e-39 -3.91552e-39 5.35508e-38 2.55235e-37 3.21596e-37 -1.76983e-36 -1.01847e-35 -1.81071e-35 4.15346e-35 3.34327e-34 7.79952e-34 -4.6762e-34 -8.97746e-33 -2.70429e-32 -1.3282e-32 1.92071e-31 7.76831e-31 1.03913e-30 -2.94003e-30 -1.87004e-29 -4.02188e-29 1.27819e-29 3.64513e-28 1.15146e-27 1.12208e-27 -4.9796e-27 -2.55903e-26 -5.06218e-26 1.49875e-26 4.19641e-25 1.33121e-24 1.59195e-24 -3.83928e-24 -2.4102e-23 -5.64154e-23 -3.16791e-23 2.63724e-22 1.1064e-21 2.08667e-21 1.35445e-22 -1.25025e-20 -4.33731e-20 -7.21186e-20 1.23617e-20 4.62965e-19 1.4973e-18 2.44833e-18 -5.5632e-20 -1.35807e-17 -4.5447e-17 -8.10118e-17 -3.5702e-17 2.9429e-16 1.16369e-15 2.43357e-15 2.47087e-15 -3.36125e-15 -2.26881e-14 -5.96771e-14 -9.49687e-14 -4.94088e-14 2.48708e-13 1.02417e-12 2.30997e-12 3.34563e-12 1.63236e-12 -7.80879e-12 -3.14344e-11 -7.17241e-11 -1.14266e-10 -1.06907e-10 6.17309e-11 5.62868e-10 1.56787e-09 3.07669e-09 4.59378e-09 4.66535e-09 4.03223e-10 -1.27187e-08 -4.03413e-08 -8.74086e-08 -1.54531e-07 -2.32151e-07 -2.92361e-07 -2.78234e-07 -9.00312e-08 4.33708e-07 1.54452e-06 3.6292e-06 7.28229e-06 1.34189e-05 2.34418e-05 3.94752e-05 6.46753e-05 0.000103625 0.000162814 0.000251196 0.000380824 0.000567535 0.000831642 0.00119858 0.00169943 0.00237112 0.00325635 0.00440277 0.00586157 0.00768513 0.00992377 0.0126215 0.0158108 0.019507 0.0237019 0.0283574 0.0334003 0.0387173 0.0441529 0.0495088 0.0545469 0.0589958 0.0625602 0.0649342 0.0658176 0.0649335 0.0620478 0.0569875 0.0496584 0.0400577 0.0282842 0.0145415 -0.000864658 -0.0175349 -0.0349918 -0.0527005 -0.0700929 -0.0865957 -0.101658 -0.114778 -0.125529 -0.133577 -0.138695 -0.140775 -0.139824 -0.135963 -0.129414 -0.120486 -0.109555 -0.0970434 -0.083398 -0.0690697 -0.0544923 -0.0400677 -0.0261517 -0.0130453 -0.000988066 0.00984265 0.0193317 0.0274213 0.0341059 0.0394233 0.0434484 0.0462824 0.0480459 0.0488711 0.0488942 0.0482508 0.0470705 0.0454735 0.0435683 0.041451 0.0392037 0.0368949 0.0345809 0.0323058 0.0301037 0.0279984 0.0260063 0.0241374 0.0223965 0.0207844 0.0192982 0.0179336 0.0166842 0.0155425 0.0145005 0.0135505 0.0126845 0.0118951 0.0111747 0.010517 0.00991578 0.00936533 0.00886036 0.00839639 0.00796931 0.0075753 0.00721115 0.00687378 0.00656103 0.00627049 0.0059998 0.00574728 0.00551139 0.00529061 0.00508376 0.0048897 0.00470714 0.00453541 0.00437333 0.0042203 0.00407588 0.00393927 0.00380965 0.00368677 0.00357034 0.00346001 0.00335507 0.00325537 0.00316036 0.0030698 0.00298349 0.00290116 0.00282279 0.00274772 0.00267591 0.00260747 0.00254197 0.00247917 0.00241917 0.00236152 0.00230638 0.00225354 0.00220264 0.00215364 0.00210675 0.00206162 0.00201816 0.0019765 0.00193654 0.00189814 0.00186117 0.00182579 0.00179156 0.00175868 0.00172693 0.00169641 0.00166699 0.0016388 0.00161165 0.00158541 0.00156026 0.00153613 0.00151296 0.00149047 0.0014689 0.00144826 0.00142833 0.00140922 0.00139075 0.00137304 0.00135608 0.00133979 0.00132444 0.00130963 0.00129525 0.00128143 0.00126829 0.00125572 0.00124383 0.00123268 0.00122199 0.00121175 0.00120194 0.00119258 0.00118379 0.00117551 0.00116798 0.00116085 0.00115415 0.00114796 0.00114211 0.00113659 0.00113176 0.00112743 0.00112351 0.0011198 0.00111663 0.0011138 0.0011115 0.00110949 0.00110794 0.0011069 0.00110626 0.00110608 0.00110626 0.0011069 0.00110794 0.00110949 0.0011115 0.0011138 0.00111663 0.0011198 0.00112351 0.00112743 0.00113176 0.00113659 0.00114211 0.00114796 0.00115415 0.00116085 0.00116798 0.00117551 0.00118379 0.00119258 0.00120194 0.00121175 0.00122199 0.00123268 0.00124383 0.00125572 0.00126829 0.00128143 0.00129525 0.00130963 0.00132444 0.00133979 0.00135608 0.00137304 0.00139075 0.00140922 0.00142833 0.00144826 0.0014689 0.00149047 0.00151296 0.00153613 0.00156026 0.00158541 0.00161165 0.0016388 0.00166699 0.00169641 0.00172693 0.00175868 0.00179156 0.00182579 0.00186117 0.00189814 0.00193654 0.0019765 0.00201816 0.00206162 0.00210675 0.00215364 0.00220264 0.00225354 0.00230638 0.00236152 0.00241917 0.00247917 0.00254197 0.00260747 0.00267591 0.00274772 0.00282279 0.00290116 0.00298349 0.0030698 0.00316036 0.00325537 0.00335507 0.00346001 0.00357034 0.00368677 0.00380965 0.00393927 0.00407588 0.0042203 0.00437333 0.00453541 0.00470714 0.0048897 0.00508376 0.00529061 0.00551139 0.00574728 0.0059998 0.00627049 0.00656103 0.00687378 0.00721115 0.0075753 0.00796931 0.00839639 0.00886036 0.00936533 0.00991578 0.010517 0.0111747 0.0118951 0.0126845 0.0135505 0.0145005 0.0155425 0.0166842 0.0179336 0.0192982 0.0207844 0.0223965 0.0241374 0.0260063 0.0279984 0.0301037 0.0323058 0.0345809 0.0368949 0.0392037 0.041451 0.0435683 0.0454735 0.0470705 0.0482508 0.0488942 0.0488711 0.0480459 0.0462824 0.0434484 0.0394233 0.0341059 0.0274213 0.0193317 0.00984265 -0.000988066 -0.0130453 -0.0261517 -0.0400677 -0.0544923 -0.0690697 -0.083398 -0.0970434 -0.109555 -0.120486 -0.129414 -0.135963 -0.139824 -0.140775 -0.138695 -0.133577 -0.125529 -0.114778 -0.101658 -0.0865957 -0.0700929 -0.0527005 -0.0349918 -0.0175349 -0.000864658 0.0145415 0.0282842 0.0400577 0.0496584 0.0569875 0.0620478 0.0649335 0.0658176 0.0649342 0.0625602 0.0589958 0.0545469 0.0495088 0.0441529 0.0387173 0.0334003 0.0283574 0.0237019 0.019507 0.0158108 0.0126215 0.00992377 0.00768513 0.00586157 0.00440277 0.00325635 0.00237112 0.00169943 0.00119858 0.000831642 0.000567535 0.000380824 0.000251196 0.000162814 0.000103625 6.46753e-05 3.94752e-05 2.34418e-05 1.34189e-05 7.28229e-06 3.6292e-06 1.54452e-06 4.33708e-07 -9.00312e-08 -2.78234e-07 -2.92361e-07 -2.32151e-07 -1.54531e-07 -8.74086e-08 -4.03413e-08 -1.27187e-08 4.03223e-10 4.66535e-09 4.59378e-09 3.07669e-09 1.56787e-09 5.62868e-10 6.17309e-11 -1.06907e-10 -1.14266e-10 -7.17241e-11 -3.14344e-11 -7.80879e-12 1.63236e-12 3.34563e-12 2.30997e-12 1.02417e-12 2.48708e-13 -4.94088e-14 -9.49687e-14 -5.96771e-14 -2.26881e-14 -3.36125e-15 2.47087e-15 2.43357e-15 1.16369e-15 2.9429e-16 -3.5702e-17 -8.10118e-17 -4.5447e-17 -1.35807e-17 -5.5632e-20 2.44833e-18 1.4973e-18 4.62965e-19 1.23617e-20 -7.21186e-20 -4.33731e-20 -1.25025e-20 1.35445e-22 2.08667e-21 1.1064e-21 2.63724e-22 -3.16791e-23 -5.64153e-23 -2.4102e-23 -3.83928e-24 1.59195e-24 1.33121e-24 4.19641e-25 1.49875e-26 -5.06218e-26 -2.55903e-26 -4.97961e-27 1.12208e-27 1.15146e-27 3.64512e-28 1.27795e-29 -4.02134e-29 -1.86626e-29 -2.93336e-30 1.03607e-30 7.74709e-31 1.91562e-31 -1.32431e-32 -2.69708e-32 -8.95395e-33 -4.66459e-34 7.77917e-34 3.33465e-34 4.14287e-35 -1.80607e-35 -1.01588e-35 -1.76535e-36 3.20787e-37 2.54595e-37 5.3417e-38 -3.90586e-39 -5.25061e-39 -1.23726e-39 2.12928e-41 9.30438e-41 2.96662e-41 4.43394e-42 0 0 