<?xml version="1.0"?>
<VTKFile type="ImageData" version="0.1" byte_order="LittleEndian">
<ImageData WholeExtent="0 599 0 599 0 0" Origin="0 0 0" Spacing="5 5 0">
<Piece Extent="0 599 0 599 0 0">
<PointData Scalars="Amplitude">
<DataArray type="Float32" Name="Amplitude" format="ascii">
0 0 0 0 0 0 0 0 0 0 0 0 0 0 0 0 0 0 0 0 0 0 0 0 0 0 0 0 0 0 0 0 0 0 0 0 0 0 0 0 0 0 0 0 0 0 0 0 0 0 0 0 0 0 0 0 0 0 0 0 0 0 0 0 0 0 0 0 0 0 0 0 0 0 0 0 0 0 0 0 0 0 0 0 0 0 0 0 0 0 0 0 0 0 0 0 0 0 0 0 0 0 0 0 0 0 0 0 0 0 0 0 0 0 0 0 0 0 0 0 0 0 0 0 0 0 0 0 0 0 0 0 0 0 0 0 0 0 0 0 0 0 0 0 0 0 0 0 0 0 0 0 0 0 0 0 0 0 0 0 0 0 0 0 0 0 0 0 0 0 0 0 0 0 0 0 0 0 0 0 0 0 0 0 0 0 0 0 0 0 0 0 0 0 0 0 0 0 0 0 0 0 0 0 0 0 0 0 0 0 0 0 0 0 0 0 0 0 0 0 0 0 0 0 0 0 0 0 0 0 0 0 0 0 0 0 0 0 0 0 0 0 0 0 0 0 0 0 0 0 0 0 0 0 0 0 0 0 0 0 0 0 0 0 0 0 0 0 0 0 0 0 0 0 0 0 0 0 0 0 0 0 0 0 0 0 0 0 0 0 0 0 0 0 0 0 0 0 0 0 0 0 0 0 0 0 0 0 0 0 0 0 0 0 0 0 0 0 0 0 0 0 0 0 0 0 0 0 0 0 0 0 0 0 0 0 0 0 0 0 0 0 0 0 0 0 0 0 0 0 0 0 0 0 0 0 0 0 0 0 0 0 0 0 0 0 0 0 0 0 0 0 0 0 0 0 0 0 0 0 0 0 0 0 0 0 0 0 0 0 0 0 0 0 0 0 0 0 0 0 0 0 0 0 0 0 0 0 0 0 0 0 0 0 0 0 0 0 0 0 0 0 0 0 0 0 0 0 0 0 0 0 0 0 0 0 0 0 0 0 0 0 0 0 0 0 0 0 0 0 0 0 0 0 0 0 0 0 0 0 0 0 0 0 0 0 0 0 0 0 0 0 0 0 0 0 0 0 0 0 0 0 0 0 0 0 0 0 0 0 0 0 0 0 0 0 0 0 0 0 0 0 0 0 0 0 0 0 0 0 0 0 0 0 0 0 0 0 0 0 0 0 0 0 0 0 0 0 0 0 0 0 0 0 0 0 0 0 0 0 0 0 0 0 0 0 0 0 0 0 0 0 0 0 0 0 0 0 0 0 0 0 0 0 0 0 0 0 0 0 0 0 0 0 0 0 0 0 0 0 0 0 0 0 0 0 0 0 0 0 0 0 0 0 0 0 0 0 0 0 
0 0 0 0 0 0 0 0 0 0 0 0 0 0 0 0 0 0 0 0 0 0 0 0 0 0 0 0 0 0 0 0 0 0 0 0 0 0 0 0 0 0 0 0 0 0 0 0 0 0 0 0 0 0 0 0 0 0 0 0 0 0 0 0 0 0 0 0 0 0 0 0 0 0 0 0 0 0 0 0 0 0 0 0 0 0 0 0 0 0 0 0 0 0 0 0 0 0 0 0 0 0 0 0 0 0 0 0 0 0 0 0 0 0 0 0 0 0 0 0 0 0 0 0 0 0 0 0 0 0 0 0 0 0 0 0 0 0 0 0 0 0 0 0 0 0 0 0 0 0 0 0 0 0 0 0 0 0 0 0 0 0 0 0 0 0 0 0 0 0 0 0 0 0 0 0 0 0 0 0 0 0 0 0 0 0 0 0 0 0 0 0 0 0 0 0 0 0 0 0 0 0 0 0 0 0 0 0 0 0 0 0 0 0 0 0 0 0 0 0 0 0 0 0 0 0 0 0 0 0 0 0 0 0 0 0 0 0 0 0 0 0 0 0 0 0 0 0 0 0 0 0 0 0 0 0 0 0 0 0 0 0 0 0 0 0 0 0 0 0 0 0 0 0 0 0 0 0 0 0 0 0 0 0 0 0 0 0 0 0 0 0 0 0 0 0 0 0 0 0 0 0 0 0 0 0 0 0 0 0 0 0 0 0 0 0 0 0 0 0 0 0 0 0 0 0 0 0 0 0 0 0 0 0 0 0 0 0 0 0 0 0 0 0 0 0 0 0 0 0 0 0 0 0 0 0 0 0 0 0 0 0 0 0 0 0 0 0 0 0 0 0 0 0 0 0 0 0 0 0 0 0 0 0 0 0 0 0 0 0 0 0 0 0 0 0 0 0 0 0 0 0 0 0 0 0 0 0 0 0 0 0 0 0 0 0 0 0 0 0 0 0 0 0 0 0 0 0 0 0 0 0 0 0 0 0 0 0 0 0 0 0 0 0 0 0 0 0 0 0 0 0 0 0 0 0 0 0 0 0 0 0 0 0 0 0 0 0 0 0 0 0 0 0 0 0 0 0 0 0 0 0 0 0 0 0 0 0 0 0 0 0 0 0 0 0 0 0 0 0 0 0 0 0 0 0 0 0 0 0 0 0 0 0 0 0 0 0 0 0 0 0 0 0 0 0 0 0 0 0 0 0 0 0 0 0 0 0 0 0 0 0 0 0 0 0 0 0 0 0 0 0 0 0 0 0 0 0 0 0 0 0 0 0 0 0 0 0 0 0 0 0 0 0 0 0 0 0 0 0 0 0 0 0 0 0 0 0 0 0 0 0 0 0 0 0 0 0 0 0 
0 0 -3.55859e-07 -7.48343e-07 -1.00007e-06 -1.2762e-06 -1.60789e-06 -1.98022e-06 -2.38986e-06 -2.87779e-06 -3.42108e-06 -3.99022e-06 -4.64538e-06 -5.39298e-06 -6.18659e-06 -6.99662e-06 -7.83215e-06 -8.72159e-06 -9.64622e-06 -1.06062e-05 -1.15444e-05 -1.2393e-05 -1.32652e-05 -1.427e-05 -1.52551e-05 -1.61444e-05 -1.70705e-05 -1.80373e-05 -1.90045e-05 -2.0023e-05 -2.11075e-05 -2.22946e-05 -2.35627e-05 -2.48819e-05 -2.616e-05 -2.74945e-05 -2.89367e-05 -3.05028e-05 -3.21552e-05 -3.39258e-05 -3.58247e-05 -3.77788e-05 -3.978e-05 -4.18791e-05 -4.40933e-05 -4.64547e-05 -4.89394e-05 -5.15821e-05 -5.43058e-05 -5.71457e-05 -6.01617e-05 -6.34243e-05 -6.67921e-05 -7.02867e-05 -7.40264e-05 -7.79076e-05 -8.19947e-05 -8.6233e-05 -9.0651e-05 -9.52992e-05 -0.000100185 -0.000105272 -0.000110584 -0.00011614 -0.000121938 -0.000127923 -0.000134192 -0.000140711 -0.000147526 -0.000154629 -0.000162003 -0.000169654 -0.000177562 -0.000185762 -0.000194256 -0.000203009 -0.000212075 -0.00022147 -0.000231135 -0.000240975 -0.000251065 -0.000261452 -0.000272092 -0.000282938 -0.000293995 -0.000305216 -0.000316544 -0.000327988 -0.000339501 -0.000351067 -0.000362629 -0.000374222 -0.000385726 -0.000397167 -0.000408485 -0.000419616 -0.000430472 -0.000441014 -0.000451271 -0.00046116 -0.000470532 -0.000479274 -0.000487289 -0.000494379 -0.000500382 -0.000504968 -0.000507747 -0.000508232 -0.000505675 -0.000499297 -0.000488083 -0.000470856 -0.000446464 -0.000413513 -0.000370804 -0.00031724 -0.000252041 -0.000174706 -8.50969e-05 1.64584e-05 0.000129322 0.000252468 0.000384564 0.000524095 0.00066932 0.000818224 0.000968509 0.00111768 0.00126301 0.00140159 0.00153041 0.00164631 0.00174633 0.00182781 0.00188819 0.00192553 0.00193824 0.00192526 0.00188614 0.00182094 0.00173033 0.00161551 0.00147827 0.00132091 0.00114614 0.000957129 0.00075749 0.000550958 0.000341466 0.000133085 -7.02562e-05 -0.000264754 -0.000446799 -0.000613215 -0.000761121 -0.000888111 -0.000992455 -0.00107282 -0.00112855 -0.00115963 -0.00116679 -0.00115135 -0.00111543 -0.00106154 -0.00099264 -0.000912104 -0.000823462 -0.00073042 -0.000636368 -0.000544384 -0.000457102 -0.000376614 -0.000304434 -0.000241344 -0.000187622 -0.000143042 -0.000106935 -7.847e-05 -5.65776e-05 -4.01335e-05 -2.80932e-05 -1.94988e-05 -1.35004e-05 -9.45836e-06 -6.80056e-06 -5.14925e-06 -4.1062e-06 -3.46078e-06 -3.08255e-06 -2.85961e-06 -2.74652e-06 -2.67022e-06 -2.64281e-06 -2.59383e-06 -2.51158e-06 -2.45325e-06 -2.44428e-06 -2.50572e-06 -2.56782e-06 -2.57474e-06 -2.54478e-06 -2.51641e-06 -2.55144e-06 -2.57374e-06 -2.53579e-06 -2.49611e-06 -2.50291e-06 -2.49908e-06 -2.49583e-06 -2.51632e-06 -2.50303e-06 -2.45657e-06 -2.43426e-06 -2.45727e-06 -2.4342e-06 -2.42791e-06 -2.41882e-06 -2.4068e-06 -2.3963e-06 -2.41772e-06 -2.39525e-06 -2.37943e-06 -2.33806e-06 -2.2774e-06 -2.26656e-06 -2.25831e-06 -2.29175e-06 -2.27265e-06 -2.24982e-06 -2.24939e-06 -2.21118e-06 -2.20719e-06 -2.1861e-06 -2.17282e-06 -2.13069e-06 -2.11016e-06 -2.14467e-06 -2.16153e-06 -2.16585e-06 -2.17671e-06 -2.20043e-06 -2.18864e-06 -2.12547e-06 -2.12201e-06 -2.14094e-06 -2.14322e-06 -2.09558e-06 -2.08484e-06 -2.05908e-06 -2.03903e-06 -2.00039e-06 -2.01571e-06 -2.0674e-06 -2.07965e-06 -2.09181e-06 -2.09079e-06 -2.09382e-06 -2.06381e-06 -2.05164e-06 -2.00871e-06 -2.03624e-06 -2.05435e-06 -2.06991e-06 -2.0776e-06 -2.07707e-06 -2.10787e-06 -2.09624e-06 -2.1199e-06 -2.09728e-06 -2.07346e-06 -2.06603e-06 -2.1035e-06 -2.11725e-06 -2.09934e-06 -2.08918e-06 -2.05818e-06 -2.06841e-06 -2.046e-06 -2.04767e-06 -1.98113e-06 -1.98685e-06 -2.0124e-06 -2.01911e-06 -1.95236e-06 -1.93832e-06 -1.96023e-06 -1.94305e-06 -1.93248e-06 -1.91771e-06 -1.92919e-06 -1.99927e-06 -2.05973e-06 -2.06369e-06 -2.02786e-06 -2.00165e-06 -1.96262e-06 -1.96325e-06 -1.99168e-06 -2.01047e-06 -1.99114e-06 -1.9828e-06 -1.99114e-06 -2.01048e-06 -1.99168e-06 -1.96325e-06 -1.96262e-06 -2.00165e-06 -2.02786e-06 -2.0637e-06 -2.05973e-06 -1.99927e-06 -1.92919e-06 -1.91771e-06 -1.93248e-06 -1.94306e-06 -1.96024e-06 -1.93833e-06 -1.95236e-06 -2.01911e-06 -2.01239e-06 -1.98684e-06 -1.98113e-06 -2.04767e-06 -2.04601e-06 -2.06843e-06 -2.05818e-06 -2.08915e-06 -2.0993e-06 -2.11719e-06 -2.10342e-06 -2.06594e-06 -2.07338e-06 -2.09723e-06 -2.11993e-06 -2.09633e-06 -2.10789e-06 -2.07688e-06 -2.07707e-06 -2.06907e-06 -2.05341e-06 -2.03554e-06 -2.00851e-06 -2.05198e-06 -2.06449e-06 -2.09452e-06 -2.09119e-06 -2.09172e-06 -2.07903e-06 -2.06616e-06 -2.01378e-06 -1.99815e-06 -2.03734e-06 -2.05865e-06 -2.08545e-06 -2.0964e-06 -2.14397e-06 -2.14229e-06 -2.12491e-06 -2.13088e-06 -2.19742e-06 -2.21187e-06 -2.18766e-06 -2.17282e-06 -2.16326e-06 -2.14142e-06 -2.10205e-06 -2.11821e-06 -2.15752e-06 -2.16944e-06 -2.19065e-06 -2.19835e-06 -2.2445e-06 -2.25252e-06 -2.27695e-06 -2.29167e-06 -2.25249e-06 -2.25732e-06 -2.26897e-06 -2.33412e-06 -2.37692e-06 -2.38452e-06 -2.39578e-06 -2.37424e-06 -2.39529e-06 -2.41369e-06 -2.41901e-06 -2.42232e-06 -2.45654e-06 -2.45628e-06 -2.49159e-06 -2.52757e-06 -2.52398e-06 -2.50386e-06 -2.5237e-06 -2.54623e-06 -2.54948e-06 -2.58249e-06 -2.59954e-06 -2.55932e-06 -2.52521e-06 -2.56902e-06 -2.61236e-06 -2.61911e-06 -2.60004e-06 -2.63392e-06 -2.78618e-06 -3.05093e-06 -3.4789e-06 -4.08831e-06 -4.91604e-06 -6.07124e-06 -7.63386e-06 -9.74807e-06 -1.24562e-05 -1.58288e-05 -1.98951e-05 -2.46374e-05 -3.01278e-05 -3.63601e-05 -4.34617e-05 -5.16363e-05 -6.1421e-05 -7.35925e-05 -8.91429e-05 -0.000109398 -0.000135943 -0.000170314 -0.000213996 -0.00026809 -0.000333115 -0.000408878 -0.000494193 -0.000586997 -0.000684378 -0.000782749 -0.000878071 -0.000965951 -0.00104225 -0.00110307 -0.00114502 -0.00116538 -0.00116202 -0.00113372 -0.00107989 -0.00100074 -0.000897093 -0.000770471 -0.000622685 -0.000456227 -0.000274057 -7.93252e-05 0.000124391 0.000333259 0.00054344 0.000751035 0.00095217 0.00114309 0.00132019 0.00148027 0.00162047 0.00173828 0.0018317 0.00189925 0.00194003 0.00195377 0.00194085 0.00190238 0.00184002 0.00175583 0.00165249 0.00153271 0.00139941 0.00125566 0.00110439 0.000948474 0.000790674 0.000633754 0.000480509 0.000333592 0.000195394 6.80539e-05 -4.66127e-05 -0.000147358 -0.000233617 -0.000305459 -0.000363545 -0.000408991 -0.000443244 -0.000467923 -0.000484657 -0.000495124 -0.000500575 -0.000502184 -0.000500876 -0.000497353 -0.000492216 -0.000485847 -0.000478523 -0.000470476 -0.000461795 -0.000452576 -0.000442909 -0.000432889 -0.000422641 -0.000412236 -0.000401614 -0.000390807 -0.000379862 -0.000368854 -0.000357833 -0.000346756 -0.000335734 -0.000324726 -0.000313781 -0.000302913 -0.000292162 -0.000281518 -0.000271043 -0.000260772 -0.000250712 -0.000240893 -0.000231374 -0.000222087 -0.000212965 -0.000204081 -0.000195528 -0.000187254 -0.000179235 -0.000171497 -0.000164028 -0.000156808 -0.000149835 -0.000143113 -0.000136662 -0.00013049 -0.000124554 -0.000118884 -0.000113376 -0.0001081 -0.000103048 -9.82065e-05 -9.35584e-05 -8.91369e-05 -8.49345e-05 -8.08918e-05 -7.6999e-05 -7.32843e-05 -6.97185e-05 -6.63753e-05 -6.31542e-05 -6.00227e-05 -5.71343e-05 -5.44156e-05 -5.1802e-05 -4.92592e-05 -4.68565e-05 -4.4576e-05 -4.24324e-05 -4.03984e-05 -3.84545e-05 -3.65636e-05 -3.47108e-05 -3.29802e-05 -3.13656e-05 -2.98337e-05 -2.84091e-05 -2.70902e-05 -2.58248e-05 -2.45236e-05 -2.32637e-05 -2.20918e-05 -2.10056e-05 -1.9981e-05 -1.89803e-05 -1.80265e-05 -1.70926e-05 -1.61926e-05 -1.51854e-05 -1.41571e-05 -1.32495e-05 -1.235e-05 -1.13651e-05 -1.03502e-05 -9.37486e-06 -8.42864e-06 -7.53638e-06 -6.67109e-06 -5.82418e-06 -5.02697e-06 -4.32067e-06 -3.70524e-06 -3.12246e-06 -2.59529e-06 -2.14731e-06 -1.74184e-06 -1.37615e-06 -1.04169e-06 -4.98289e-07 0 0 
0 0 -7.48343e-07 -1.58773e-06 -2.09346e-06 -2.66342e-06 -3.31548e-06 -4.05207e-06 -4.92542e-06 -5.92833e-06 -7.00383e-06 -8.21158e-06 -9.57489e-06 -1.10349e-05 -1.25963e-05 -1.42265e-05 -1.5927e-05 -1.77134e-05 -1.95608e-05 -2.14416e-05 -2.33045e-05 -2.5164e-05 -2.70689e-05 -2.89611e-05 -3.07401e-05 -3.25395e-05 -3.44481e-05 -3.63981e-05 -3.84333e-05 -4.05827e-05 -4.28241e-05 -4.5201e-05 -4.76744e-05 -5.02006e-05 -5.28157e-05 -5.565e-05 -5.8624e-05 -6.17853e-05 -6.51553e-05 -6.87419e-05 -7.24758e-05 -7.63483e-05 -8.04639e-05 -8.48114e-05 -8.94102e-05 -9.42282e-05 -9.93007e-05 -0.000104565 -0.000110105 -0.000115951 -0.00012218 -0.000128724 -0.000135553 -0.000142753 -0.000150242 -0.000158101 -0.000166391 -0.000175069 -0.000184183 -0.000193677 -0.000203577 -0.000213973 -0.000224877 -0.000236201 -0.000247977 -0.000260266 -0.000273132 -0.000286517 -0.000300479 -0.000314945 -0.000329943 -0.00034554 -0.000361708 -0.000378464 -0.000395863 -0.000413825 -0.000432404 -0.000451543 -0.000471204 -0.000491407 -0.000512231 -0.000533548 -0.000555351 -0.000577603 -0.000600266 -0.000623249 -0.000646575 -0.000670106 -0.000693784 -0.000717604 -0.000741509 -0.00076538 -0.000789179 -0.000812849 -0.000836192 -0.000859174 -0.000881723 -0.000903719 -0.000925118 -0.000945692 -0.000965283 -0.000983662 -0.00100056 -0.00101573 -0.00102874 -0.00103905 -0.00104587 -0.00104812 -0.00104447 -0.00103338 -0.00101285 -0.000980641 -0.000934265 -0.000871048 -0.000788472 -0.000684171 -0.00055635 -0.000403833 -0.000226132 -2.36246e-05 0.000202522 0.000450475 0.000717745 0.00100131 0.00129757 0.00160246 0.0019114 0.00221951 0.00252128 0.00281081 0.00308188 0.00332819 0.00354356 0.00372218 0.00385881 0.00394907 0.00398939 0.00397739 0.00391174 0.00379238 0.00362025 0.00339757 0.00312764 0.00281486 0.00246467 0.0020834 0.00167813 0.00125646 0.000826413 0.000396215 -2.58264e-05 -0.000431757 -0.0008142 -0.00116628 -0.00148183 -0.00175575 -0.00198395 -0.00216353 -0.00229279 -0.00237142 -0.0024004 -0.00238214 -0.00232038 -0.00222001 -0.00208697 -0.00192805 -0.00175039 -0.00156142 -0.00136836 -0.00117765 -0.000995084 -0.000825247 -0.000671512 -0.000536022 -0.00041964 -0.000322224 -0.000242695 -0.000179366 -0.000130179 -9.29357e-05 -6.54115e-05 -4.55467e-05 -3.16557e-05 -2.21623e-05 -1.58619e-05 -1.17476e-05 -9.13165e-06 -7.56988e-06 -6.62055e-06 -6.10108e-06 -5.73436e-06 -5.49365e-06 -5.34333e-06 -5.24064e-06 -5.17084e-06 -5.12658e-06 -5.11468e-06 -5.12944e-06 -5.13524e-06 -5.15367e-06 -5.13744e-06 -5.15759e-06 -5.1784e-06 -5.16687e-06 -5.17516e-06 -5.16361e-06 -5.13249e-06 -5.12831e-06 -5.11664e-06 -5.06244e-06 -5.0298e-06 -5.01474e-06 -5.02061e-06 -4.9874e-06 -4.95338e-06 -4.99058e-06 -4.97265e-06 -4.93489e-06 -4.88743e-06 -4.88758e-06 -4.84848e-06 -4.83992e-06 -4.76596e-06 -4.69434e-06 -4.70137e-06 -4.74001e-06 -4.74891e-06 -4.69495e-06 -4.71564e-06 -4.70833e-06 -4.65653e-06 -4.62744e-06 -4.61079e-06 -4.5394e-06 -4.45833e-06 -4.42874e-06 -4.43662e-06 -4.41351e-06 -4.3827e-06 -4.36207e-06 -4.39317e-06 -4.41687e-06 -4.38466e-06 -4.36938e-06 -4.3823e-06 -4.39187e-06 -4.36054e-06 -4.36087e-06 -4.30425e-06 -4.25503e-06 -4.19875e-06 -4.20705e-06 -4.20886e-06 -4.28891e-06 -4.29773e-06 -4.27705e-06 -4.26927e-06 -4.29456e-06 -4.31893e-06 -4.33617e-06 -4.35503e-06 -4.36236e-06 -4.29629e-06 -4.28578e-06 -4.3451e-06 -4.36134e-06 -4.35108e-06 -4.32174e-06 -4.31766e-06 -4.34355e-06 -4.31729e-06 -4.29343e-06 -4.23453e-06 -4.20368e-06 -4.2151e-06 -4.18584e-06 -4.12431e-06 -4.12696e-06 -4.11583e-06 -4.09017e-06 -4.08731e-06 -4.0964e-06 -4.0546e-06 -4.05051e-06 -4.07701e-06 -4.04895e-06 -4.01539e-06 -3.99416e-06 -3.98191e-06 -4.03228e-06 -4.08695e-06 -4.18173e-06 -4.19196e-06 -4.22378e-06 -4.15507e-06 -4.13295e-06 -4.1059e-06 -4.10812e-06 -4.1264e-06 -4.17041e-06 -4.18554e-06 -4.17041e-06 -4.1264e-06 -4.10812e-06 -4.10591e-06 -4.13295e-06 -4.15508e-06 -4.22379e-06 -4.19196e-06 -4.18174e-06 -4.08695e-06 -4.03229e-06 -3.98192e-06 -3.99416e-06 -4.0154e-06 -4.04897e-06 -4.07702e-06 -4.05052e-06 -4.0546e-06 -4.09639e-06 -4.08731e-06 -4.09018e-06 -4.11584e-06 -4.12698e-06 -4.12433e-06 -4.18583e-06 -4.21505e-06 -4.20358e-06 -4.23439e-06 -4.29326e-06 -4.31713e-06 -4.34343e-06 -4.31764e-06 -4.32183e-06 -4.35118e-06 -4.36119e-06 -4.34443e-06 -4.28447e-06 -4.29458e-06 -4.36076e-06 -4.3541e-06 -4.33617e-06 -4.3197e-06 -4.29571e-06 -4.27035e-06 -4.27763e-06 -4.29742e-06 -4.28739e-06 -4.20589e-06 -4.20301e-06 -4.19481e-06 -4.25255e-06 -4.30364e-06 -4.36148e-06 -4.36187e-06 -4.39447e-06 -4.38727e-06 -4.378e-06 -4.39839e-06 -4.43588e-06 -4.41416e-06 -4.3797e-06 -4.39346e-06 -4.41609e-06 -4.42965e-06 -4.41111e-06 -4.43107e-06 -4.50529e-06 -4.57413e-06 -4.59572e-06 -4.63835e-06 -4.7064e-06 -4.72303e-06 -4.69975e-06 -4.74313e-06 -4.72437e-06 -4.68283e-06 -4.67983e-06 -4.75576e-06 -4.82544e-06 -4.82046e-06 -4.84928e-06 -4.85289e-06 -4.9106e-06 -4.95112e-06 -4.96655e-06 -4.93964e-06 -5.00558e-06 -5.07253e-06 -5.07349e-06 -5.07098e-06 -5.09227e-06 -5.15926e-06 -5.19943e-06 -5.22774e-06 -5.2596e-06 -5.24644e-06 -5.20774e-06 -5.20512e-06 -5.18997e-06 -5.18619e-06 -5.23224e-06 -5.27785e-06 -5.39615e-06 -5.58739e-06 -5.92394e-06 -6.50231e-06 -7.43705e-06 -8.82776e-06 -1.07773e-05 -1.34736e-05 -1.7113e-05 -2.18e-05 -2.78002e-05 -3.51766e-05 -4.40432e-05 -5.43109e-05 -6.60003e-05 -7.93125e-05 -9.45466e-05 -0.000112453 -0.000134122 -0.000161293 -0.000196278 -0.00024193 -0.000301451 -0.000378019 -0.000474434 -0.000592572 -0.000733065 -0.000894838 -0.00107502 -0.00126888 -0.00146991 -0.00167056 -0.00186229 -0.0020363 -0.00218423 -0.00229824 -0.00237171 -0.00239948 -0.00237782 -0.00230447 -0.00217876 -0.00200139 -0.00177444 -0.00150111 -0.00118569 -0.000833487 -0.000450733 -4.42597e-05 0.000378557 0.000809864 0.00124161 0.00166574 0.00207433 0.00245982 0.00281511 0.00313367 0.00340971 0.00363843 0.00381601 0.00393972 0.00400817 0.00402112 0.00397981 0.00388669 0.00374554 0.00356098 0.00333845 0.0030838 0.00280311 0.00250247 0.00218799 0.0018655 0.00154078 0.00121943 0.000907099 0.000609143 0.000330516 7.54315e-05 -0.000152821 -0.000352168 -0.000521792 -0.000662127 -0.000774771 -0.00086223 -0.00092755 -0.000974124 -0.00100527 -0.00102409 -0.00103326 -0.00103502 -0.0010312 -0.00102311 -0.00101179 -0.000998093 -0.000982548 -0.000965517 -0.000947304 -0.000928068 -0.000907997 -0.000887258 -0.000865969 -0.0008443 -0.000822262 -0.00079995 -0.00077741 -0.000754659 -0.000731871 -0.000709057 -0.000686264 -0.000663584 -0.000641061 -0.000618728 -0.000596609 -0.000574849 -0.000553387 -0.000532336 -0.000511715 -0.000491568 -0.000471894 -0.000452823 -0.000434265 -0.000416198 -0.000398666 -0.000381704 -0.000365285 -0.000349448 -0.000334171 -0.000319426 -0.000305248 -0.000291562 -0.00027835 -0.000265664 -0.000253477 -0.000241821 -0.000230656 -0.000219898 -0.000209535 -0.000199649 -0.000190233 -0.000181197 -0.000172524 -0.000164249 -0.000156346 -0.000148831 -0.000141672 -0.000134776 -0.000128245 -0.00012196 -0.000115988 -0.000110366 -0.000105058 -9.9994e-05 -9.51053e-05 -9.04379e-05 -8.59858e-05 -8.1779e-05 -7.77804e-05 -7.40304e-05 -7.03922e-05 -6.69056e-05 -6.35996e-05 -6.05216e-05 -5.75917e-05 -5.48126e-05 -5.22155e-05 -4.97266e-05 -4.72562e-05 -4.4899e-05 -4.26529e-05 -4.04938e-05 -3.8359e-05 -3.64521e-05 -3.45429e-05 -3.27011e-05 -3.08668e-05 -2.89084e-05 -2.69291e-05 -2.49772e-05 -2.30108e-05 -2.10262e-05 -1.90684e-05 -1.71702e-05 -1.53518e-05 -1.36058e-05 -1.19346e-05 -1.03705e-05 -8.90755e-06 -7.60115e-06 -6.43627e-06 -5.35416e-06 -4.40717e-06 -3.60261e-06 -2.88506e-06 -2.21158e-06 -1.04743e-06 0 0 
0 0 -1.00007e-06 -2.09346e-06 -2.72339e-06 -3.40703e-06 -4.14357e-06 -5.00744e-06 -6.06748e-06 -7.18061e-06 -8.36607e-06 -9.78716e-06 -1.13006e-05 -1.2875e-05 -1.45554e-05 -1.62758e-05 -1.81159e-05 -2.00394e-05 -2.20085e-05 -2.39551e-05 -2.58754e-05 -2.788e-05 -2.99394e-05 -3.18216e-05 -3.36407e-05 -3.57372e-05 -3.79014e-05 -4.00554e-05 -4.23939e-05 -4.47896e-05 -4.73053e-05 -4.99424e-05 -5.26216e-05 -5.53036e-05 -5.82854e-05 -6.14938e-05 -6.48166e-05 -6.84181e-05 -7.227e-05 -7.62799e-05 -8.03659e-05 -8.46981e-05 -8.94008e-05 -9.43187e-05 -9.95261e-05 -0.000104924 -0.000110596 -0.000116427 -0.000122727 -0.000129412 -0.000136577 -0.000143928 -0.000151688 -0.000159844 -0.000168239 -0.000177271 -0.000186711 -0.000196644 -0.000207027 -0.000217776 -0.000229077 -0.000241049 -0.000253464 -0.000266307 -0.000279724 -0.000293909 -0.000308657 -0.000324065 -0.000340035 -0.000356553 -0.000373758 -0.000391696 -0.000410272 -0.000429618 -0.000449659 -0.000470397 -0.00049184 -0.000513943 -0.000536657 -0.000560229 -0.000584501 -0.000609332 -0.000634795 -0.000660815 -0.00068732 -0.000714322 -0.000741862 -0.000769556 -0.000797649 -0.000825926 -0.000854473 -0.000882973 -0.000911587 -0.000940061 -0.000968206 -0.00099614 -0.00102365 -0.00105073 -0.00107722 -0.00110288 -0.0011276 -0.00115109 -0.00117321 -0.00119376 -0.00121237 -0.00122863 -0.00124174 -0.0012507 -0.00125446 -0.00125162 -0.00124003 -0.00121754 -0.00118121 -0.0011281 -0.00105486 -0.000958269 -0.000835539 -0.000684455 -0.000503409 -0.000291843 -5.01515e-05 0.000220294 0.00051734 0.000837833 0.00117808 0.00153375 0.00190011 0.00227192 0.00264319 0.00300725 0.00335692 0.00368475 0.00398321 0.00424448 0.0044617 0.00462847 0.00473928 0.00479003 0.00477775 0.00470098 0.0045594 0.00435425 0.004088 0.00376457 0.00338946 0.00296911 0.00251102 0.0020237 0.00151642 0.000998764 0.000480953 -2.71686e-05 -0.000516226 -0.00097711 -0.00140139 -0.00178191 -0.00211224 -0.00238751 -0.00260413 -0.00276008 -0.00285478 -0.00288945 -0.00286684 -0.00279139 -0.00266921 -0.00250764 -0.00231469 -0.00209907 -0.00186998 -0.00163605 -0.00140534 -0.00118488 -0.000980096 -0.000795343 -0.000632903 -0.000493799 -0.000377804 -0.000283338 -0.000208444 -0.00015057 -0.000107001 -7.49009e-05 -5.20063e-05 -3.60658e-05 -2.52674e-05 -1.79248e-05 -1.32334e-05 -1.03542e-05 -8.61905e-06 -7.60687e-06 -6.84234e-06 -6.42987e-06 -6.15545e-06 -6.03899e-06 -6.00194e-06 -6.04411e-06 -6.04832e-06 -6.03419e-06 -5.99007e-06 -5.95267e-06 -5.98189e-06 -6.0597e-06 -6.01022e-06 -5.98102e-06 -6.06091e-06 -6.07668e-06 -5.9321e-06 -5.95864e-06 -5.95704e-06 -5.82854e-06 -5.85936e-06 -5.96743e-06 -6.03813e-06 -5.92958e-06 -5.92412e-06 -5.98602e-06 -5.91213e-06 -5.78751e-06 -5.76666e-06 -5.72896e-06 -5.75194e-06 -5.66271e-06 -5.58674e-06 -5.52434e-06 -5.5802e-06 -5.65888e-06 -5.60158e-06 -5.61014e-06 -5.66778e-06 -5.58185e-06 -5.52321e-06 -5.44937e-06 -5.49192e-06 -5.43047e-06 -5.38628e-06 -5.35766e-06 -5.27132e-06 -5.22753e-06 -5.11045e-06 -5.06589e-06 -5.07152e-06 -5.09264e-06 -5.15421e-06 -5.06406e-06 -5.04364e-06 -5.07865e-06 -5.13914e-06 -5.07341e-06 -5.06341e-06 -5.01429e-06 -5.03334e-06 -5.09067e-06 -5.07006e-06 -5.17734e-06 -5.07465e-06 -5.00562e-06 -5.0003e-06 -5.1103e-06 -5.17237e-06 -5.26829e-06 -5.2369e-06 -5.22994e-06 -5.12726e-06 -5.10319e-06 -5.16072e-06 -5.1112e-06 -5.12998e-06 -5.1303e-06 -5.17999e-06 -5.19748e-06 -5.11251e-06 -4.98297e-06 -4.91877e-06 -4.94325e-06 -5.00589e-06 -5.06846e-06 -4.97722e-06 -4.93593e-06 -4.88665e-06 -4.95869e-06 -4.84133e-06 -4.76895e-06 -4.73939e-06 -4.85863e-06 -4.87019e-06 -4.74748e-06 -4.77376e-06 -4.75968e-06 -4.79344e-06 -4.84887e-06 -4.83675e-06 -4.8924e-06 -4.92732e-06 -4.96027e-06 -4.85708e-06 -4.94522e-06 -4.92768e-06 -4.83443e-06 -4.78546e-06 -4.86596e-06 -4.93502e-06 -4.86597e-06 -4.78546e-06 -4.83444e-06 -4.92769e-06 -4.94525e-06 -4.8571e-06 -4.96028e-06 -4.92732e-06 -4.8924e-06 -4.83676e-06 -4.84887e-06 -4.79345e-06 -4.7597e-06 -4.77378e-06 -4.7475e-06 -4.8702e-06 -4.85863e-06 -4.73939e-06 -4.76896e-06 -4.84133e-06 -4.95871e-06 -4.88666e-06 -4.93595e-06 -4.97721e-06 -5.0684e-06 -5.00577e-06 -4.94307e-06 -4.91855e-06 -4.98275e-06 -5.11234e-06 -5.19744e-06 -5.18012e-06 -5.13052e-06 -5.12994e-06 -5.11047e-06 -5.15905e-06 -5.10083e-06 -5.12495e-06 -5.22861e-06 -5.23702e-06 -5.26954e-06 -5.17408e-06 -5.11179e-06 -5.00105e-06 -5.00531e-06 -5.07293e-06 -5.17382e-06 -5.06491e-06 -5.08537e-06 -5.03008e-06 -5.014e-06 -5.06479e-06 -5.07509e-06 -5.14181e-06 -5.08434e-06 -5.05397e-06 -5.08064e-06 -5.17814e-06 -5.12039e-06 -5.0947e-06 -5.07866e-06 -5.11285e-06 -5.21966e-06 -5.25079e-06 -5.32444e-06 -5.3439e-06 -5.38351e-06 -5.44904e-06 -5.42443e-06 -5.52382e-06 -5.59903e-06 -5.68189e-06 -5.60645e-06 -5.58025e-06 -5.63189e-06 -5.5601e-06 -5.5133e-06 -5.57208e-06 -5.62729e-06 -5.69627e-06 -5.67699e-06 -5.73587e-06 -5.76616e-06 -5.88252e-06 -5.9603e-06 -5.94085e-06 -6.00505e-06 -6.13182e-06 -6.02643e-06 -5.88737e-06 -5.87305e-06 -6.04806e-06 -6.08882e-06 -6.06546e-06 -6.1692e-06 -6.09923e-06 -5.99483e-06 -6.03874e-06 -6.11592e-06 -6.06804e-06 -6.10316e-06 -6.27868e-06 -6.55706e-06 -6.92835e-06 -7.50494e-06 -8.44513e-06 -9.99228e-06 -1.22129e-05 -1.53401e-05 -1.96003e-05 -2.53481e-05 -3.24506e-05 -4.12674e-05 -5.18682e-05 -6.42358e-05 -7.8375e-05 -9.41438e-05 -0.000112101 -0.000132959 -0.000158207 -0.000189705 -0.000230303 -0.000283465 -0.000353213 -0.00044338 -0.000557681 -0.000698562 -0.000866906 -0.00106179 -0.00127951 -0.00151445 -0.00175866 -0.00200256 -0.00223585 -0.00244763 -0.00262764 -0.00276656 -0.00285617 -0.00289009 -0.00286401 -0.00277539 -0.00262342 -0.00240913 -0.00213507 -0.00180526 -0.00142474 -0.00100016 -0.000538878 -4.91877e-05 0.000459859 0.000978878 0.00149842 0.00200861 0.00249988 0.00296304 0.00338961 0.00377183 0.00410282 0.00437657 0.00458854 0.00473555 0.0048158 0.00482923 0.00477718 0.00466272 0.00449025 0.00426566 0.00399561 0.00368708 0.00334776 0.00298484 0.00260559 0.00221711 0.00182618 0.00143969 0.00106424 0.000706179 0.000371553 6.56079e-05 -0.000207438 -0.00044512 -0.000646485 -0.000812243 -0.000944354 -0.00104609 -0.00112137 -0.00117421 -0.00120879 -0.00122903 -0.00123798 -0.00123856 -0.00123269 -0.00122224 -0.00120816 -0.00119122 -0.00117212 -0.00115143 -0.00112939 -0.00110631 -0.00108234 -0.00105749 -0.001032 -0.00100593 -0.000979479 -0.000952804 -0.000925852 -0.000898823 -0.000871569 -0.000844235 -0.00081705 -0.000789897 -0.000762992 -0.000736317 -0.000710079 -0.000683996 -0.000658459 -0.000633374 -0.000608774 -0.000584692 -0.00056126 -0.000538325 -0.000516073 -0.000494634 -0.000473814 -0.000453553 -0.000434001 -0.000415059 -0.000396764 -0.000379211 -0.000362235 -0.000345965 -0.000330348 -0.000315223 -0.000300627 -0.000286653 -0.000273195 -0.000260495 -0.000248275 -0.000236484 -0.000225077 -0.000214314 -0.000204049 -0.000194148 -0.000184673 -0.000175649 -0.00016702 -0.000158949 -0.000151131 -0.000143691 -0.000136642 -0.000129754 -0.000123308 -0.000117265 -0.000111663 -0.000106222 -0.000100979 -9.59317e-05 -9.11593e-05 -8.65992e-05 -8.23844e-05 -7.84183e-05 -7.45145e-05 -7.07392e-05 -6.72146e-05 -6.39547e-05 -6.07981e-05 -5.78389e-05 -5.51711e-05 -5.24962e-05 -4.9843e-05 -4.73278e-05 -4.48932e-05 -4.25173e-05 -4.03411e-05 -3.81674e-05 -3.60121e-05 -3.41162e-05 -3.21405e-05 -2.99848e-05 -2.78866e-05 -2.58405e-05 -2.37711e-05 -2.1675e-05 -1.96248e-05 -1.76556e-05 -1.57963e-05 -1.39876e-05 -1.22872e-05 -1.06615e-05 -9.13023e-06 -7.83157e-06 -6.61973e-06 -5.47089e-06 -4.52353e-06 -3.70704e-06 -2.88708e-06 -1.38423e-06 0 0 