<?xml version="1.0"?>
<VTKFile type="ImageData" version="0.1" byte_order="LittleEndian">
<ImageData WholeExtent="0 599 0 599 0 0" Origin="0 0 0" Spacing="5 5 0">
<Piece Extent="0 599 0 599 0 0">
<PointData Scalars="Amplitude">
<DataArray type="Float32" Name="Amplitude" format="ascii">
0 0 0 0 0 0 0 0 0 0 0 0 0 0 0 0 0 0 0 0 0 0 0 0 0 0 0 0 0 0 0 0 0 0 0 0 0 0 0 0 0 0 0 0 0 0 0 0 0 0 0 0 0 0 0 0 0 0 0 0 0 0 0 0 0 0 0 0 0 0 0 0 0 0 0 0 0 0 0 0 0 0 0 0 0 0 0 0 0 0 0 0 0 0 0 0 0 0 0 0 0 0 0 0 0 0 0 0 0 0 0 0 0 0 0 0 0 0 0 0 0 0 0 0 0 0 0 0 0 0 0 0 0 0 0 0 0 0 0 0 0 0 0 0 0 0 0 0 0 0 0 0 0 0 0 0 0 0 0 0 0 0 0 0 0 0 0 0 0 0 0 0 0 0 0 0 0 0 0 0 0 0 0 0 0 0 0 0 0 0 0 0 0 0 0 0 0 0 0 0 0 0 0 0 0 0 0 0 0 0 0 0 0 0 0 0 0 0 0 0 0 0 0 0 0 0 0 0 0 0 0 0 0 0 0 0 0 0 0 0 0 0 0 0 0 0 0 0 0 0 0 0 0 0 0 0 0 0 0 0 0 0 0 0 0 0 0 0 0 0 0 0 0 0 0 0 0 0 0 0 0 0 0 0 0 0 0 0 0 0 0 0 0 0 0 0 0 0 0 0 0 0 0 0 0 0 0 0 0 0 0 0 0 0 0 0 0 0 0 0 0 0 0 0 0 0 0 0 0 0 0 0 0 0 0 0 0 0 0 0 0 0 0 0 0 0 0 0 0 0 0 0 0 0 0 0 0 0 0 0 0 0 0 0 0 0 0 0 0 0 0 0 0 0 0 0 0 0 0 0 0 0 0 0 0 0 0 0 0 0 0 0 0 0 0 0 0 0 0 0 0 0 0 0 0 0 0 0 0 0 0 0 0 0 0 0 0 0 0 0 0 0 0 0 0 0 0 0 0 0 0 0 0 0 0 0 0 0 0 0 0 0 0 0 0 0 0 0 0 0 0 0 0 0 0 0 0 0 0 0 0 0 0 0 0 0 0 0 0 0 0 0 0 0 0 0 0 0 0 0 0 0 0 0 0 0 0 0 0 0 0 0 0 0 0 0 0 0 0 0 0 0 0 0 0 0 0 0 0 0 0 0 0 0 0 0 0 0 0 0 0 0 0 0 0 0 0 0 0 0 0 0 0 0 0 0 0 0 0 0 0 0 0 0 0 0 0 0 0 0 0 0 0 0 0 0 0 0 0 0 0 0 0 0 0 0 0 0 0 0 0 0 0 0 0 0 0 0 0 0 0 0 0 0 0 0 0 0 0 0 0 0 0 0 0 0 0 0 0 0 
0 0 0 0 0 0 0 0 0 0 0 0 0 0 0 0 0 0 0 0 0 0 0 0 0 0 0 0 0 0 0 0 0 0 0 0 0 0 0 0 0 0 0 0 0 0 0 0 0 0 0 0 0 0 0 0 0 0 0 0 0 0 0 0 0 0 0 0 0 0 0 0 0 0 0 0 0 0 0 0 0 0 0 0 0 0 0 0 0 0 0 0 0 0 0 0 0 0 0 0 0 0 0 0 0 0 0 0 0 0 0 0 0 0 0 0 0 0 0 0 0 0 0 0 0 0 0 0 0 0 0 0 0 0 0 0 0 0 0 0 0 0 0 0 0 0 0 0 0 0 0 0 0 0 0 0 0 0 0 0 0 0 0 0 0 0 0 0 0 0 0 0 0 0 0 0 0 0 0 0 0 0 0 0 0 0 0 0 0 0 0 0 0 0 0 0 0 0 0 0 0 0 0 0 0 0 0 0 0 0 0 0 0 0 0 0 0 0 0 0 0 0 0 0 0 0 0 0 0 0 0 0 0 0 0 0 0 0 0 0 0 0 0 0 0 0 0 0 0 0 0 0 0 0 0 0 0 0 0 0 0 0 0 0 0 0 0 0 0 0 0 0 0 0 0 0 0 0 0 0 0 0 0 0 0 0 0 0 0 0 0 0 0 0 0 0 0 0 0 0 0 0 0 0 0 0 0 0 0 0 0 0 0 0 0 0 0 0 0 0 0 0 0 0 0 0 0 0 0 0 0 0 0 0 0 0 0 0 0 0 0 0 0 0 0 0 0 0 0 0 0 0 0 0 0 0 0 0 0 0 0 0 0 0 0 0 0 0 0 0 0 0 0 0 0 0 0 0 0 0 0 0 0 0 0 0 0 0 0 0 0 0 0 0 0 0 0 0 0 0 0 0 0 0 0 0 0 0 0 0 0 0 0 0 0 0 0 0 0 0 0 0 0 0 0 0 0 0 0 0 0 0 0 0 0 0 0 0 0 0 0 0 0 0 0 0 0 0 0 0 0 0 0 0 0 0 0 0 0 0 0 0 0 0 0 0 0 0 0 0 0 0 0 0 0 0 0 0 0 0 0 0 0 0 0 0 0 0 0 0 0 0 0 0 0 0 0 0 0 0 0 0 0 0 0 0 0 0 0 0 0 0 0 0 0 0 0 0 0 0 0 0 0 0 0 0 0 0 0 0 0 0 0 0 0 0 0 0 0 0 0 0 0 0 0 0 0 0 0 0 0 0 0 0 0 0 0 0 0 0 0 0 0 0 0 0 0 0 0 0 0 0 0 0 0 0 0 0 0 0 0 0 0 0 0 0 0 0 0 0 0 0 0 0 0 0 0 0 0 0 
0 0 -8.33819e-08 -1.75329e-07 -2.26538e-07 -2.68134e-07 -3.2376e-07 -3.91254e-07 -4.5012e-07 -5.28155e-07 -6.13735e-07 -6.43859e-07 -6.79087e-07 -7.76587e-07 -8.51115e-07 -8.95697e-07 -9.39194e-07 -9.58507e-07 -1.03705e-06 -1.14381e-06 -1.20965e-06 -1.28178e-06 -1.35434e-06 -1.39678e-06 -1.49957e-06 -1.64105e-06 -1.76006e-06 -1.80274e-06 -1.87349e-06 -2.07879e-06 -2.35768e-06 -2.57329e-06 -2.76681e-06 -2.97467e-06 -3.27703e-06 -3.66985e-06 -4.031e-06 -4.42445e-06 -4.92837e-06 -5.44801e-06 -5.93499e-06 -6.46015e-06 -7.04889e-06 -7.718e-06 -8.41265e-06 -9.1907e-06 -1.00413e-05 -1.09369e-05 -1.19043e-05 -1.29199e-05 -1.40183e-05 -1.51756e-05 -1.63648e-05 -1.76553e-05 -1.89631e-05 -2.03647e-05 -2.1893e-05 -2.3466e-05 -2.51838e-05 -2.69853e-05 -2.88409e-05 -3.08502e-05 -3.29993e-05 -3.52344e-05 -3.75701e-05 -4.00173e-05 -4.26395e-05 -4.54188e-05 -4.83075e-05 -5.133e-05 -5.44792e-05 -5.78766e-05 -6.14038e-05 -6.50715e-05 -6.8934e-05 -7.29455e-05 -7.71185e-05 -8.14741e-05 -8.60229e-05 -9.07957e-05 -9.58278e-05 -0.000101098 -0.000106607 -0.000112342 -0.000118293 -0.000124474 -0.000130906 -0.000137579 -0.000144576 -0.000151759 -0.000159244 -0.000166995 -0.000174965 -0.000183202 -0.000191699 -0.000200477 -0.00020951 -0.000218792 -0.000228295 -0.000237978 -0.000247883 -0.000257918 -0.000268148 -0.000278555 -0.00028907 -0.000299678 -0.000310357 -0.000321147 -0.000331931 -0.000342741 -0.000353515 -0.000364171 -0.000374769 -0.000385275 -0.00039562 -0.000405765 -0.000415653 -0.000425207 -0.000434338 -0.000443 -0.000450974 -0.000458181 -0.000464448 -0.000469468 -0.000472821 -0.000474042 -0.000472528 -0.000467486 -0.00045798 -0.000442982 -0.000421314 -0.000391691 -0.000352937 -0.000304011 -0.000244016 -0.00017255 -8.9509e-05 4.92869e-06 0.000110083 0.000225044 0.000348554 0.000479094 0.000615024 0.00075448 0.000895306 0.00103512 0.00117131 0.00130115 0.0014218 0.00153033 0.00162391 0.00169996 0.00175625 0.0017909 0.00180254 0.00179033 0.00175384 0.00169327 0.00160924 0.00150295 0.00137597 0.00123045 0.00106902 0.00089451 0.000710136 0.000519407 0.000325876 0.000133215 -5.49077e-05 -0.000235037 -0.000403908 -0.000558549 -0.000696307 -0.000814989 -0.000912824 -0.000988718 -0.00104198 -0.00107265 -0.00108121 -0.0010688 -0.00103717 -0.000988501 -0.000925617 -0.000851594 -0.000769788 -0.000683522 -0.000596011 -0.000510188 -0.000428579 -0.000353179 -0.000285414 -0.000226085 -0.000175538 -0.00013356 -9.95341e-05 -7.26161e-05 -5.19679e-05 -3.65013e-05 -2.5215e-05 -1.72123e-05 -1.17065e-05 -7.9953e-06 -5.50631e-06 -3.9405e-06 -3.03441e-06 -2.5111e-06 -2.16714e-06 -1.97981e-06 -1.89306e-06 -1.82821e-06 -1.79762e-06 -1.74856e-06 -1.67635e-06 -1.63365e-06 -1.62289e-06 -1.64005e-06 -1.66678e-06 -1.71903e-06 -1.75974e-06 -1.71177e-06 -1.66937e-06 -1.61798e-06 -1.56461e-06 -1.56668e-06 -1.61364e-06 -1.63755e-06 -1.6269e-06 -1.62333e-06 -1.55766e-06 -1.57444e-06 -1.60351e-06 -1.61318e-06 -1.60749e-06 -1.62605e-06 -1.57703e-06 -1.57599e-06 -1.56355e-06 -1.55601e-06 -1.53862e-06 -1.58599e-06 -1.58836e-06 -1.61533e-06 -1.58154e-06 -1.53244e-06 -1.53717e-06 -1.52254e-06 -1.54774e-06 -1.56671e-06 -1.59738e-06 -1.57558e-06 -1.56371e-06 -1.56711e-06 -1.61264e-06 -1.64582e-06 -1.62464e-06 -1.5716e-06 -1.5395e-06 -1.56629e-06 -1.54707e-06 -1.483e-06 -1.4453e-06 -1.47389e-06 -1.53691e-06 -1.55269e-06 -1.47342e-06 -1.41474e-06 -1.40435e-06 -1.44853e-06 -1.46003e-06 -1.47136e-06 -1.48564e-06 -1.5049e-06 -1.51376e-06 -1.4909e-06 -1.47961e-06 -1.45876e-06 -1.44323e-06 -1.44282e-06 -1.42978e-06 -1.45036e-06 -1.50103e-06 -1.51578e-06 -1.55796e-06 -1.56623e-06 -1.55322e-06 -1.51326e-06 -1.48041e-06 -1.47794e-06 -1.47325e-06 -1.4732e-06 -1.46208e-06 -1.43013e-06 -1.41631e-06 -1.42721e-06 -1.4211e-06 -1.42801e-06 -1.46901e-06 -1.51819e-06 -1.55026e-06 -1.54623e-06 -1.52831e-06 -1.54623e-06 -1.55025e-06 -1.51819e-06 -1.46902e-06 -1.42803e-06 -1.42111e-06 -1.4272e-06 -1.41629e-06 -1.43008e-06 -1.462e-06 -1.4731e-06 -1.47315e-06 -1.47789e-06 -1.48043e-06 -1.5133e-06 -1.55317e-06 -1.566e-06 -1.55753e-06 -1.51519e-06 -1.50041e-06 -1.44997e-06 -1.42983e-06 -1.44326e-06 -1.44381e-06 -1.45923e-06 -1.47991e-06 -1.49095e-06 -1.51341e-06 -1.50402e-06 -1.48457e-06 -1.47107e-06 -1.46152e-06 -1.45159e-06 -1.40742e-06 -1.41651e-06 -1.47456e-06 -1.55505e-06 -1.54131e-06 -1.47965e-06 -1.45173e-06 -1.48987e-06 -1.55307e-06 -1.56911e-06 -1.53801e-06 -1.56677e-06 -1.61787e-06 -1.6376e-06 -1.60327e-06 -1.55738e-06 -1.55507e-06 -1.57067e-06 -1.59905e-06 -1.57432e-06 -1.55574e-06 -1.52482e-06 -1.53225e-06 -1.52332e-06 -1.57095e-06 -1.60176e-06 -1.56709e-06 -1.55575e-06 -1.50672e-06 -1.53394e-06 -1.55703e-06 -1.58133e-06 -1.58875e-06 -1.64459e-06 -1.63612e-06 -1.64945e-06 -1.63918e-06 -1.60487e-06 -1.58764e-06 -1.6594e-06 -1.66376e-06 -1.66048e-06 -1.62087e-06 -1.57456e-06 -1.58252e-06 -1.63676e-06 -1.67881e-06 -1.71685e-06 -1.777e-06 -1.76066e-06 -1.73849e-06 -1.75411e-06 -1.8052e-06 -1.93295e-06 -2.17301e-06 -2.55849e-06 -3.09668e-06 -3.86932e-06 -4.9844e-06 -6.46684e-06 -8.439e-06 -1.09922e-05 -1.41161e-05 -1.78749e-05 -2.23288e-05 -2.74626e-05 -3.32091e-05 -3.97061e-05 -4.72251e-05 -5.62224e-05 -6.74246e-05 -8.18414e-05 -0.000100801 -0.000125657 -0.000157976 -0.000199182 -0.000250297 -0.000311693 -0.000383091 -0.000463345 -0.000550454 -0.00064158 -0.000733234 -0.000821535 -0.000902506 -0.000972205 -0.00102711 -0.00106409 -0.00108085 -0.00107561 -0.00104731 -0.0009956 -0.00092063 -0.000823295 -0.000704838 -0.000567135 -0.000412446 -0.000243441 -6.30947e-05 0.000125325 0.000318463 0.000512778 0.000704665 0.00089062 0.00106715 0.00123102 0.00137929 0.0015092 0.00161844 0.00170517 0.00176785 0.00180559 0.00181809 0.00180572 0.00176934 0.00171046 0.0016312 0.00153395 0.00142139 0.00129631 0.0011615 0.00101968 0.000873619 0.000725966 0.000579284 0.000436163 0.000299093 0.000170348 5.20181e-05 -5.41804e-05 -0.000147198 -0.000226517 -0.000292308 -0.000345233 -0.000386311 -0.000416996 -0.000438857 -0.00045346 -0.000462311 -0.00046667 -0.000467545 -0.000465763 -0.000461961 -0.000456636 -0.000450135 -0.000442766 -0.000434778 -0.000426235 -0.000417193 -0.000407847 -0.000398195 -0.000388345 -0.000378347 -0.000368243 -0.000358068 -0.000347842 -0.000337604 -0.000327313 -0.000316993 -0.000306729 -0.000296488 -0.000286356 -0.000276323 -0.00026638 -0.000256545 -0.000246901 -0.000237436 -0.000228109 -0.000218978 -0.000210023 -0.000201279 -0.00019276 -0.000184491 -0.000176457 -0.000168683 -0.000161155 -0.000153827 -0.000146756 -0.000139978 -0.000133362 -0.000127053 -0.000120964 -0.00011511 -0.00010947 -0.000104022 -9.87847e-05 -9.37783e-05 -8.89926e-05 -8.44536e-05 -8.01356e-05 -7.5988e-05 -7.20217e-05 -6.81877e-05 -6.45072e-05 -6.10161e-05 -5.76499e-05 -5.44043e-05 -5.13903e-05 -4.85025e-05 -4.57239e-05 -4.30524e-05 -4.05136e-05 -3.81583e-05 -3.59017e-05 -3.37441e-05 -3.16576e-05 -2.96988e-05 -2.78949e-05 -2.61337e-05 -2.4459e-05 -2.29235e-05 -2.14353e-05 -2.00643e-05 -1.87807e-05 -1.75117e-05 -1.63432e-05 -1.52037e-05 -1.41188e-05 -1.3117e-05 -1.21554e-05 -1.12674e-05 -1.04232e-05 -9.65317e-06 -8.96513e-06 -8.29517e-06 -7.70286e-06 -7.17292e-06 -6.67427e-06 -6.1351e-06 -5.61076e-06 -5.19725e-06 -4.82253e-06 -4.41175e-06 -4.08635e-06 -3.84636e-06 -3.63121e-06 -3.38774e-06 -3.08169e-06 -2.84022e-06 -2.7464e-06 -2.68057e-06 -2.53712e-06 -2.35498e-06 -2.21131e-06 -2.12431e-06 -2.0101e-06 -1.8877e-06 -1.76599e-06 -1.59615e-06 -1.45654e-06 -1.38008e-06 -1.2868e-06 -1.1968e-06 -1.07783e-06 -9.39904e-07 -8.67694e-07 -8.02351e-07 -6.87024e-07 -5.81322e-07 -4.98881e-07 -4.11588e-07 -3.34223e-07 -2.66603e-07 -1.32015e-07 0 0 
0 0 -1.75329e-07 -3.63357e-07 -4.55583e-07 -5.61036e-07 -6.77196e-07 -7.83705e-07 -9.05227e-07 -1.04807e-06 -1.16341e-06 -1.2788e-06 -1.433e-06 -1.56379e-06 -1.66881e-06 -1.78724e-06 -1.87018e-06 -1.96535e-06 -2.10288e-06 -2.20214e-06 -2.28947e-06 -2.4182e-06 -2.55012e-06 -2.70833e-06 -2.91492e-06 -3.10305e-06 -3.26053e-06 -3.42219e-06 -3.68996e-06 -4.064e-06 -4.46404e-06 -4.88186e-06 -5.39372e-06 -5.9545e-06 -6.59962e-06 -7.24295e-06 -7.94207e-06 -8.80069e-06 -9.72619e-06 -1.06838e-05 -1.17253e-05 -1.28775e-05 -1.41287e-05 -1.54703e-05 -1.68897e-05 -1.84225e-05 -2.00729e-05 -2.18818e-05 -2.38441e-05 -2.59014e-05 -2.8091e-05 -3.03894e-05 -3.28523e-05 -3.54146e-05 -3.81235e-05 -4.1036e-05 -4.40745e-05 -4.7345e-05 -5.08364e-05 -5.4488e-05 -5.83354e-05 -6.24545e-05 -6.67248e-05 -7.12724e-05 -7.60616e-05 -8.11205e-05 -8.64573e-05 -9.20505e-05 -9.79084e-05 -0.000104024 -0.000110507 -0.00011731 -0.000124434 -0.000131931 -0.00013976 -0.00014793 -0.000156501 -0.000165452 -0.000174799 -0.000184681 -0.000194959 -0.000205643 -0.000216821 -0.000228459 -0.000240585 -0.000253252 -0.000266403 -0.000280125 -0.000294312 -0.000309041 -0.000324311 -0.0003401 -0.000356398 -0.000373275 -0.000390689 -0.000408696 -0.000427211 -0.000446194 -0.000465621 -0.000485536 -0.000505824 -0.000526478 -0.000547512 -0.000568899 -0.000590478 -0.000612309 -0.000634348 -0.000656527 -0.000678768 -0.000701026 -0.000723202 -0.000745337 -0.00076731 -0.000789066 -0.000810532 -0.000831583 -0.000852113 -0.000872005 -0.000891091 -0.000909193 -0.000926057 -0.00094142 -0.000954882 -0.000965878 -0.000973687 -0.000977391 -0.000975751 -0.000967275 -0.000950115 -0.000922236 -0.000881126 -0.000824377 -0.000749454 -0.000654137 -0.000536647 -0.000395812 -0.000231123 -4.28507e-05 0.000167937 0.000399427 0.000649197 0.000914437 0.00119174 0.0014773 0.00176687 0.0020557 0.00233858 0.00260995 0.00286399 0.00309468 0.00329618 0.00346302 0.00359031 0.0036741 0.00371124 0.00369962 0.0036382 0.00352697 0.00336706 0.00316056 0.00291058 0.00262122 0.00229746 0.00194511 0.00157067 0.00118101 0.000783591 0.000385952 -4.4887e-06 -0.000380384 -0.000734982 -0.00106191 -0.00135568 -0.00161137 -0.00182522 -0.00199443 -0.00211739 -0.00219373 -0.00222414 -0.00221073 -0.00215665 -0.00206632 -0.00194513 -0.00179927 -0.00163542 -0.00146035 -0.00128078 -0.00110298 -0.000932362 -0.000773307 -0.000629057 -0.000501718 -0.000392271 -0.000300574 -0.000225619 -0.000165978 -0.000119709 -8.46906e-05 -5.89211e-05 -4.04445e-05 -2.75668e-05 -1.87899e-05 -1.29528e-05 -9.23638e-06 -6.91261e-06 -5.50216e-06 -4.65189e-06 -4.16022e-06 -3.83729e-06 -3.65732e-06 -3.55127e-06 -3.5134e-06 -3.49449e-06 -3.49177e-06 -3.44653e-06 -3.48161e-06 -3.47048e-06 -3.44017e-06 -3.43178e-06 -3.39629e-06 -3.39102e-06 -3.33996e-06 -3.33985e-06 -3.35239e-06 -3.39723e-06 -3.41018e-06 -3.40993e-06 -3.3733e-06 -3.30921e-06 -3.26618e-06 -3.2476e-06 -3.21652e-06 -3.19677e-06 -3.21865e-06 -3.23775e-06 -3.26211e-06 -3.30646e-06 -3.35409e-06 -3.37121e-06 -3.40011e-06 -3.31931e-06 -3.25752e-06 -3.20035e-06 -3.20683e-06 -3.20326e-06 -3.21282e-06 -3.20873e-06 -3.17597e-06 -3.1401e-06 -3.12375e-06 -3.16804e-06 -3.18246e-06 -3.20067e-06 -3.18686e-06 -3.17568e-06 -3.18056e-06 -3.17739e-06 -3.18193e-06 -3.13402e-06 -3.06908e-06 -3.02837e-06 -3.0404e-06 -3.02194e-06 -2.99244e-06 -2.9947e-06 -3.01999e-06 -3.00195e-06 -3.04155e-06 -3.07091e-06 -3.05148e-06 -3.04468e-06 -3.05408e-06 -3.06549e-06 -3.08255e-06 -3.05591e-06 -3.00368e-06 -2.9638e-06 -2.99059e-06 -3.02986e-06 -3.07797e-06 -3.13714e-06 -3.17044e-06 -3.20239e-06 -3.20575e-06 -3.20385e-06 -3.16605e-06 -3.15044e-06 -3.16395e-06 -3.16293e-06 -3.14267e-06 -3.15556e-06 -3.10616e-06 -3.08967e-06 -3.10391e-06 -3.10266e-06 -3.07982e-06 -3.08061e-06 -3.05497e-06 -3.07685e-06 -3.06286e-06 -3.05851e-06 -3.06285e-06 -3.07684e-06 -3.05498e-06 -3.08063e-06 -3.07985e-06 -3.10267e-06 -3.10388e-06 -3.08959e-06 -3.10602e-06 -3.15537e-06 -3.14247e-06 -3.16277e-06 -3.16391e-06 -3.15048e-06 -3.16604e-06 -3.20362e-06 -3.20518e-06 -3.20146e-06 -3.16924e-06 -3.13604e-06 -3.07744e-06 -3.03015e-06 -2.99151e-06 -2.96488e-06 -3.00455e-06 -3.05634e-06 -3.08233e-06 -3.06447e-06 -3.05257e-06 -3.04381e-06 -3.05282e-06 -3.075e-06 -3.04699e-06 -3.00654e-06 -3.02329e-06 -2.9986e-06 -2.99891e-06 -3.03102e-06 -3.05112e-06 -3.04041e-06 -3.08182e-06 -3.14489e-06 -3.18732e-06 -3.17514e-06 -3.17084e-06 -3.1601e-06 -3.16777e-06 -3.18067e-06 -3.16404e-06 -3.15429e-06 -3.11881e-06 -3.14601e-06 -3.18816e-06 -3.2175e-06 -3.21138e-06 -3.192e-06 -3.18878e-06 -3.17521e-06 -3.22134e-06 -3.26912e-06 -3.34078e-06 -3.31806e-06 -3.32321e-06 -3.30055e-06 -3.27316e-06 -3.26345e-06 -3.26437e-06 -3.26161e-06 -3.28893e-06 -3.316e-06 -3.3284e-06 -3.37205e-06 -3.44029e-06 -3.46856e-06 -3.4454e-06 -3.41692e-06 -3.37693e-06 -3.37263e-06 -3.3677e-06 -3.40935e-06 -3.42452e-06 -3.49488e-06 -3.54898e-06 -3.63858e-06 -3.74818e-06 -3.88462e-06 -4.22252e-06 -4.70543e-06 -5.48792e-06 -6.6976e-06 -8.50945e-06 -1.10451e-05 -1.4479e-05 -1.89197e-05 -2.45663e-05 -3.14754e-05 -3.9682e-05 -4.91951e-05 -6.01034e-05 -7.24234e-05 -8.64373e-05 -0.00010283 -0.000122705 -0.000147761 -0.000180173 -0.000222749 -0.000278599 -0.000350645 -0.000441542 -0.000553065 -0.000685619 -0.000838031 -0.00100743 -0.00118922 -0.00137718 -0.0015639 -0.00174132 -0.00190137 -0.00203623 -0.00213888 -0.00220342 -0.00222519 -0.00220105 -0.00212914 -0.00200905 -0.00184155 -0.00162861 -0.0013733 -0.00107959 -0.000752532 -0.000397617 -2.12275e-05 0.000369975 0.000768844 0.00116812 0.0015604 0.00193834 0.00229507 0.00262402 0.00291919 0.00317528 0.0033877 0.00355274 0.00366773 0.00373117 0.00374277 0.00370348 0.00361561 0.00348267 0.00330898 0.00309969 0.00286041 0.00259687 0.00231489 0.00202014 0.00171812 0.00141421 0.00111379 0.000822109 0.000544229 0.000284816 4.78001e-05 -0.000163687 -0.00034774 -0.000503672 -0.000632026 -0.000734514 -0.000813535 -0.000872048 -0.000913267 -0.00094039 -0.000956193 -0.000963302 -0.000963647 -0.000958857 -0.000950192 -0.000938626 -0.000924794 -0.000909236 -0.000892345 -0.00087441 -0.000855635 -0.000836177 -0.000816178 -0.000795781 -0.000775048 -0.000754095 -0.000732987 -0.000711797 -0.00069058 -0.000669384 -0.000648179 -0.000627061 -0.000606031 -0.00058517 -0.000564552 -0.000544158 -0.000523973 -0.000504124 -0.000484634 -0.0004655 -0.000446707 -0.000428387 -0.000410473 -0.000393016 -0.00037603 -0.000359601 -0.000343688 -0.000328305 -0.000313407 -0.000298984 -0.000285063 -0.000271649 -0.000258659 -0.000246197 -0.000234199 -0.000222699 -0.000211663 -0.000201048 -0.000190895 -0.000181127 -0.000171733 -0.000162848 -0.000154329 -0.000146168 -0.000138374 -0.0001309 -0.000123729 -0.000116928 -0.000110412 -0.0001042 -9.83229e-05 -9.26917e-05 -8.72972e-05 -8.21492e-05 -7.72668e-05 -7.26463e-05 -6.82517e-05 -6.41137e-05 -6.01215e-05 -5.63831e-05 -5.28364e-05 -4.94296e-05 -4.62432e-05 -4.32735e-05 -4.04247e-05 -3.7769e-05 -3.52508e-05 -3.2827e-05 -3.05619e-05 -2.84024e-05 -2.63615e-05 -2.44148e-05 -2.2613e-05 -2.09637e-05 -1.94266e-05 -1.80014e-05 -1.66553e-05 -1.53858e-05 -1.42174e-05 -1.31512e-05 -1.21683e-05 -1.12025e-05 -1.03037e-05 -9.56171e-06 -8.87767e-06 -8.19065e-06 -7.58088e-06 -7.01632e-06 -6.54751e-06 -6.0914e-06 -5.6568e-06 -5.31569e-06 -5.10346e-06 -4.88516e-06 -4.62599e-06 -4.33628e-06 -4.09107e-06 -3.86395e-06 -3.63767e-06 -3.44877e-06 -3.24332e-06 -2.99434e-06 -2.79242e-06 -2.60742e-06 -2.39196e-06 -2.19602e-06 -1.97764e-06 -1.7463e-06 -1.55961e-06 -1.3793e-06 -1.1817e-06 -1.01092e-06 -8.57971e-07 -7.02337e-07 -5.56379e-07 -2.67787e-07 0 0 
0 0 -2.26538e-07 -4.55583e-07 -5.60256e-07 -6.95182e-07 -8.04184e-07 -8.93628e-07 -1.04178e-06 -1.16283e-06 -1.22479e-06 -1.37575e-06 -1.53125e-06 -1.5765e-06 -1.66047e-06 -1.73336e-06 -1.73578e-06 -1.859e-06 -1.94231e-06 -1.92544e-06 -1.98309e-06 -2.08752e-06 -2.1514e-06 -2.32389e-06 -2.47246e-06 -2.55511e-06 -2.61037e-06 -2.79609e-06 -3.15585e-06 -3.56691e-06 -3.90547e-06 -4.38075e-06 -4.95635e-06 -5.55977e-06 -6.21509e-06 -6.77967e-06 -7.6335e-06 -8.62704e-06 -9.56342e-06 -1.05638e-05 -1.17584e-05 -1.30576e-05 -1.44517e-05 -1.58886e-05 -1.74409e-05 -1.91321e-05 -2.10043e-05 -2.31112e-05 -2.5289e-05 -2.75561e-05 -2.9957e-05 -3.25273e-05 -3.52634e-05 -3.80618e-05 -4.11525e-05 -4.44047e-05 -4.7792e-05 -5.15976e-05 -5.55096e-05 -5.95855e-05 -6.39763e-05 -6.8587e-05 -7.33734e-05 -7.85984e-05 -8.40337e-05 -8.98168e-05 -9.58548e-05 -0.000102139 -0.000108715 -0.00011564 -0.00012306 -0.000130719 -0.000138827 -0.000147366 -0.00015619 -0.000165505 -0.000175294 -0.000185464 -0.000196255 -0.000207625 -0.000219242 -0.000231458 -0.000244208 -0.000257507 -0.000271412 -0.000285952 -0.000301053 -0.000316814 -0.000333031 -0.000349994 -0.000367523 -0.00038566 -0.000404456 -0.000423996 -0.00044423 -0.000465176 -0.000486672 -0.000508736 -0.000531407 -0.000554666 -0.000578279 -0.000602493 -0.000627241 -0.000652363 -0.000677763 -0.000703549 -0.000729746 -0.000755987 -0.000782486 -0.000808994 -0.000835456 -0.000862124 -0.000888624 -0.000914944 -0.000941039 -0.000966718 -0.000991913 -0.0010166 -0.00104051 -0.00106347 -0.00108539 -0.00110587 -0.00112461 -0.00114113 -0.00115488 -0.00116504 -0.00117035 -0.00116957 -0.00116091 -0.00114212 -0.00111042 -0.00106321 -0.000997103 -0.000909107 -0.000796663 -0.000657416 -0.000489757 -0.000293195 -6.79948e-05 0.000184417 0.000461889 0.000761694 0.00108018 0.00141332 0.00175662 0.00210505 0.00245303 0.00279427 0.00312193 0.00342889 0.00370797 0.00395192 0.00415413 0.00430878 0.00441093 0.00445682 0.00444402 0.00437108 0.00423823 0.00404669 0.00379907 0.00349905 0.00315129 0.00276215 0.00233846 0.00188784 0.00141903 0.000940851 0.000462187 -7.74722e-06 -0.00046037 -0.00088729 -0.00128098 -0.00163449 -0.00194222 -0.00219943 -0.00240291 -0.00255046 -0.00264167 -0.00267743 -0.00266002 -0.00259362 -0.00248329 -0.00233567 -0.00215828 -0.00195921 -0.00174684 -0.0015294 -0.00131442 -0.0011084 -0.000916682 -0.000743401 -0.00059084 -0.000460152 -0.00035107 -0.000262513 -0.00019222 -0.000137918 -9.70889e-05 -6.72082e-05 -4.59082e-05 -3.10798e-05 -2.11604e-05 -1.46945e-05 -1.04497e-05 -7.76831e-06 -6.2026e-06 -5.23084e-06 -4.64279e-06 -4.33996e-06 -4.13477e-06 -4.10275e-06 -4.21057e-06 -4.25195e-06 -4.18297e-06 -4.15049e-06 -4.07882e-06 -3.92731e-06 -3.84663e-06 -3.87113e-06 -3.88874e-06 -3.92228e-06 -3.992e-06 -4.01289e-06 -4.03938e-06 -4.05617e-06 -4.04952e-06 -3.93615e-06 -3.92649e-06 -3.84393e-06 -3.76654e-06 -3.7044e-06 -3.71283e-06 -3.72674e-06 -3.83866e-06 -3.86193e-06 -3.91249e-06 -3.96536e-06 -4.03442e-06 -4.00638e-06 -3.91362e-06 -3.74052e-06 -3.72479e-06 -3.76178e-06 -3.75381e-06 -3.79975e-06 -3.71716e-06 -3.62292e-06 -3.55698e-06 -3.62262e-06 -3.70558e-06 -3.74702e-06 -3.74013e-06 -3.68164e-06 -3.66839e-06 -3.68868e-06 -3.73098e-06 -3.65752e-06 -3.60942e-06 -3.62271e-06 -3.63745e-06 -3.59426e-06 -3.42951e-06 -3.34672e-06 -3.48601e-06 -3.53581e-06 -3.51173e-06 -3.50348e-06 -3.56329e-06 -3.63575e-06 -3.60268e-06 -3.58673e-06 -3.56793e-06 -3.6246e-06 -3.56736e-06 -3.51151e-06 -3.49687e-06 -3.45711e-06 -3.59795e-06 -3.76749e-06 -3.78886e-06 -3.88946e-06 -3.87793e-06 -3.8388e-06 -3.81649e-06 -3.77827e-06 -3.81864e-06 -3.79614e-06 -3.85769e-06 -3.79804e-06 -3.80403e-06 -3.74797e-06 -3.76846e-06 -3.76181e-06 -3.79791e-06 -3.84149e-06 -3.80337e-06 -3.70912e-06 -3.6375e-06 -3.57582e-06 -3.58513e-06 -3.57582e-06 -3.63752e-06 -3.70914e-06 -3.8034e-06 -3.84152e-06 -3.79789e-06 -3.7617e-06 -3.76828e-06 -3.74774e-06 -3.80375e-06 -3.79782e-06 -3.85761e-06 -3.79624e-06 -3.81874e-06 -3.77806e-06 -3.81583e-06 -3.83768e-06 -3.87644e-06 -3.88796e-06 -3.78805e-06 -3.76784e-06 -3.59925e-06 -3.45866e-06 -3.49807e-06 -3.51211e-06 -3.56716e-06 -3.62334e-06 -3.56585e-06 -3.58529e-06 -3.60426e-06 -3.64169e-06 -3.57168e-06 -3.51033e-06 -3.51538e-06 -3.53919e-06 -3.49314e-06 -3.35795e-06 -3.44232e-06 -3.60765e-06 -3.65199e-06 -3.63635e-06 -3.61721e-06 -3.65587e-06 -3.71974e-06 -3.66979e-06 -3.64461e-06 -3.65675e-06 -3.71774e-06 -3.73032e-06 -3.69935e-06 -3.63116e-06 -3.57605e-06 -3.63806e-06 -3.71578e-06 -3.78254e-06 -3.72847e-06 -3.72987e-06 -3.68021e-06 -3.67746e-06 -3.83583e-06 -3.93336e-06 -3.99293e-06 -3.96381e-06 -3.9337e-06 -3.89371e-06 -3.8923e-06 -3.81039e-06 -3.80985e-06 -3.79175e-06 -3.83813e-06 -3.91134e-06 -4.00241e-06 -4.00921e-06 -4.08906e-06 -4.06356e-06 -4.05439e-06 -4.05163e-06 -4.02876e-06 -3.93725e-06 -3.90582e-06 -3.93851e-06 -3.98198e-06 -4.12637e-06 -4.37381e-06 -4.62418e-06 -4.97447e-06 -5.57817e-06 -6.39463e-06 -7.62568e-06 -9.64088e-06 -1.26073e-05 -1.65778e-05 -2.18545e-05 -2.85876e-05 -3.68524e-05 -4.6779e-05 -5.82406e-05 -7.11419e-05 -8.57343e-05 -0.000102358 -0.000121521 -0.000144547 -0.000173444 -0.000210902 -0.000260245 -0.000325214 -0.000409952 -0.000517582 -0.000650431 -0.000809147 -0.000992653 -0.00119729 -0.00141744 -0.00164559 -0.00187267 -0.00208875 -0.00228379 -0.0024483 -0.00257371 -0.00265277 -0.00268016 -0.00265176 -0.00256562 -0.00242126 -0.00221955 -0.0019632 -0.00165575 -0.00130221 -0.000908323 -0.000481025 -2.78036e-05 0.000442979 0.000923023 0.00140338 0.00187529 0.00233006 0.00275902 0.00315444 0.00350931 0.00381687 0.00407189 0.0042699 0.00440749 0.00448294 0.00449579 0.00444722 0.00433991 0.00417819 0.0039675 0.00371405 0.00342459 0.00310629 0.00276602 0.00241066 0.00204695 0.00168125 0.00131979 0.000968914 0.000634719 0.000322831 3.83247e-05 -0.000215043 -0.000434995 -0.000620692 -0.000772789 -0.000893302 -0.000985536 -0.00105326 -0.00110032 -0.00113056 -0.00114774 -0.00115459 -0.0011537 -0.001147 -0.00113595 -0.00112154 -0.00110462 -0.00108572 -0.00106528 -0.00104357 -0.00102093 -0.000997595 -0.000973556 -0.000949065 -0.000924259 -0.000899181 -0.000873887 -0.000848486 -0.000823092 -0.000797631 -0.000772397 -0.00074726 -0.000722182 -0.000697331 -0.000672603 -0.000648268 -0.000624289 -0.000600621 -0.000577243 -0.000554415 -0.000532139 -0.000510202 -0.000488818 -0.000467998 -0.000447744 -0.000427958 -0.000408905 -0.000390471 -0.000372718 -0.000355595 -0.000339014 -0.000322954 -0.000307634 -0.000292691 -0.000278386 -0.0002646 -0.000251396 -0.000238795 -0.000226683 -0.000215076 -0.000204042 -0.000193232 -0.000182949 -0.00017328 -0.000163935 -0.000155056 -0.000146615 -0.00013843 -0.000130667 -0.000123326 -0.000116199 -0.00010952 -0.00010319 -9.71073e-05 -9.12942e-05 -8.56899e-05 -8.04507e-05 -7.53769e-05 -7.07465e-05 -6.6262e-05 -6.19888e-05 -5.80185e-05 -5.41954e-05 -5.04768e-05 -4.71559e-05 -4.39798e-05 -4.09345e-05 -3.81914e-05 -3.54757e-05 -3.29453e-05 -3.05717e-05 -2.83175e-05 -2.61468e-05 -2.40365e-05 -2.21661e-05 -2.04481e-05 -1.88762e-05 -1.74148e-05 -1.60047e-05 -1.46655e-05 -1.34454e-05 -1.24095e-05 -1.14377e-05 -1.03804e-05 -9.47125e-06 -8.84355e-06 -8.14282e-06 -7.48842e-06 -6.84122e-06 -6.30781e-06 -5.90512e-06 -5.43188e-06 -4.98975e-06 -4.73938e-06 -4.60752e-06 -4.45469e-06 -4.21377e-06 -3.94925e-06 -3.77981e-06 -3.56667e-06 -3.40173e-06 -3.30838e-06 -3.10075e-06 -2.85244e-06 -2.73749e-06 -2.54761e-06 -2.35675e-06 -2.20877e-06 -1.95873e-06 -1.72497e-06 -1.58439e-06 -1.39789e-06 -1.18671e-06 -1.03577e-06 -8.84303e-07 -7.02843e-07 -3.35128e-07 0 0 