<?xml version="1.0"?>
<VTKFile type="ImageData" version="0.1" byte_order="LittleEndian">
<ImageData WholeExtent="0 599 0 599 0 0" Origin="0 0 0" Spacing="5 5 0">
<Piece Extent="0 599 0 599 0 0">
<PointData Scalars="Amplitude">
<DataArray type="Float32" Name="Amplitude" format="ascii">
0 0 0 0 0 0 0 0 0 0 0 0 0 0 0 0 0 0 0 0 0 0 0 0 0 0 0 0 0 0 0 0 0 0 0 0 0 0 0 0 0 0 0 0 0 0 0 0 0 0 0 0 0 0 0 0 0 0 0 0 0 0 0 0 0 0 0 0 0 0 0 0 0 0 0 0 0 0 0 0 0 0 0 0 0 0 0 0 0 0 0 0 0 0 0 0 0 0 0 0 0 0 0 0 0 0 0 0 0 0 0 0 0 0 0 0 0 0 0 0 0 0 0 0 0 0 0 0 0 0 0 0 0 0 0 0 0 0 0 0 0 0 0 0 0 0 0 0 0 0 0 0 0 0 0 0 0 0 0 0 0 0 0 0 0 0 0 0 0 0 0 0 0 0 0 0 0 0 0 0 0 0 0 0 0 0 0 0 0 0 0 0 0 0 0 0 0 0 0 0 0 0 0 0 0 0 0 0 0 0 0 0 0 0 0 0 0 0 0 0 0 0 0 0 0 0 0 0 0 0 0 0 0 0 0 0 0 0 0 0 0 0 0 0 0 0 0 0 0 0 0 0 0 0 0 0 0 0 0 0 0 0 0 0 0 0 0 0 0 0 0 0 0 0 0 0 0 0 0 0 0 0 0 0 0 0 0 0 0 0 0 0 0 0 0 0 0 0 0 0 0 0 0 0 0 0 0 0 0 0 0 0 0 0 0 0 0 0 0 0 0 0 0 0 0 0 0 0 0 0 0 0 0 0 0 0 0 0 0 0 0 0 0 0 0 0 0 0 0 0 0 0 0 0 0 0 0 0 0 0 0 0 0 0 0 0 0 0 0 0 0 0 0 0 0 0 0 0 0 0 0 0 0 0 0 0 0 0 0 0 0 0 0 0 0 0 0 0 0 0 0 0 0 0 0 0 0 0 0 0 0 0 0 0 0 0 0 0 0 0 0 0 0 0 0 0 0 0 0 0 0 0 0 0 0 0 0 0 0 0 0 0 0 0 0 0 0 0 0 0 0 0 0 0 0 0 0 0 0 0 0 0 0 0 0 0 0 0 0 0 0 0 0 0 0 0 0 0 0 0 0 0 0 0 0 0 0 0 0 0 0 0 0 0 0 0 0 0 0 0 0 0 0 0 0 0 0 0 0 0 0 0 0 0 0 0 0 0 0 0 0 0 0 0 0 0 0 0 0 0 0 0 0 0 0 0 0 0 0 0 0 0 0 0 0 0 0 0 0 0 0 0 0 0 0 0 0 0 0 0 0 0 0 0 0 0 0 0 0 0 0 0 0 0 0 0 0 0 0 0 0 0 0 0 0 0 0 0 0 0 0 0 0 0 0 0 0 0 0 0 
0 0 0 0 0 0 0 0 0 0 0 0 0 0 0 0 0 0 0 0 0 0 0 0 0 0 0 0 0 0 0 0 0 0 0 0 0 0 0 0 0 0 0 0 0 0 0 0 0 0 0 0 0 0 0 0 0 0 0 0 0 0 0 0 0 0 0 0 0 0 0 0 0 0 0 0 0 0 0 0 0 0 0 0 0 0 0 0 0 0 0 0 0 0 0 0 0 0 0 0 0 0 0 0 0 0 0 0 0 0 0 0 0 0 0 0 0 0 0 0 0 0 0 0 0 0 0 0 0 0 0 0 0 0 0 0 0 0 0 0 0 0 0 0 0 0 0 0 0 0 0 0 0 0 0 0 0 0 0 0 0 0 0 0 0 0 0 0 0 0 0 0 0 0 0 0 0 0 0 0 0 0 0 0 0 0 0 0 0 0 0 0 0 0 0 0 0 0 0 0 0 0 0 0 0 0 0 0 0 0 0 0 0 0 0 0 0 0 0 0 0 0 0 0 0 0 0 0 0 0 0 0 0 0 0 0 0 0 0 0 0 0 0 0 0 0 0 0 0 0 0 0 0 0 0 0 0 0 0 0 0 0 0 0 0 0 0 0 0 0 0 0 0 0 0 0 0 0 0 0 0 0 0 0 0 0 0 0 0 0 0 0 0 0 0 0 0 0 0 0 0 0 0 0 0 0 0 0 0 0 0 0 0 0 0 0 0 0 0 0 0 0 0 0 0 0 0 0 0 0 0 0 0 0 0 0 0 0 0 0 0 0 0 0 0 0 0 0 0 0 0 0 0 0 0 0 0 0 0 0 0 0 0 0 0 0 0 0 0 0 0 0 0 0 0 0 0 0 0 0 0 0 0 0 0 0 0 0 0 0 0 0 0 0 0 0 0 0 0 0 0 0 0 0 0 0 0 0 0 0 0 0 0 0 0 0 0 0 0 0 0 0 0 0 0 0 0 0 0 0 0 0 0 0 0 0 0 0 0 0 0 0 0 0 0 0 0 0 0 0 0 0 0 0 0 0 0 0 0 0 0 0 0 0 0 0 0 0 0 0 0 0 0 0 0 0 0 0 0 0 0 0 0 0 0 0 0 0 0 0 0 0 0 0 0 0 0 0 0 0 0 0 0 0 0 0 0 0 0 0 0 0 0 0 0 0 0 0 0 0 0 0 0 0 0 0 0 0 0 0 0 0 0 0 0 0 0 0 0 0 0 0 0 0 0 0 0 0 0 0 0 0 0 0 0 0 0 0 0 0 0 0 0 0 0 0 0 0 0 0 0 0 0 0 0 0 0 0 0 0 0 0 0 0 0 0 0 0 0 0 0 0 0 0 0 0 0 0 0 0 
0 0 0 0 0 0 0 0 0 0 0 0 0 0 0 0 0 0 0 0 0 0 0 9.49783e-45 1.62849e-44 -3.40647e-43 -1.73852e-42 -2.59489e-42 8.64783e-42 5.55391e-41 1.03925e-40 -1.94371e-40 -1.69557e-39 -3.97215e-39 2.58203e-39 4.67529e-38 1.37541e-37 4.11083e-38 -1.1233e-36 -4.26585e-36 -4.68292e-36 2.16784e-35 1.16282e-34 2.15038e-34 -2.51437e-34 -2.69368e-33 -7.23754e-33 -2.83341e-33 4.92632e-32 1.9368e-31 2.79376e-31 -5.53825e-31 -4.08781e-30 -9.92479e-30 -3.48166e-30 6.19938e-29 2.403e-28 3.81407e-28 -4.02556e-28 -4.08851e-27 -1.13248e-26 -1.10074e-26 3.87867e-26 2.07399e-25 4.59381e-25 2.35202e-25 -2.13146e-24 -8.8132e-24 -1.70272e-23 -4.46357e-24 8.74077e-23 3.25801e-22 6.02787e-22 1.81908e-22 -2.7981e-21 -1.05447e-20 -2.04824e-20 -1.25222e-20 6.65269e-20 2.9061e-19 6.38853e-19 6.81636e-19 -8.88407e-19 -6.31903e-18 -1.68859e-17 -2.65231e-17 -9.88908e-18 8.83152e-17 3.3728e-16 7.25993e-16 9.33196e-16 -2.02257e-17 -3.9658e-15 -1.28805e-14 -2.59956e-14 -3.34974e-14 -7.53969e-15 1.03253e-13 3.6002e-13 7.74236e-13 1.17488e-12 1.00184e-12 -8.94341e-13 -6.21831e-12 -1.65435e-11 -3.14253e-11 -4.48974e-11 -4.06075e-11 1.26791e-11 1.61191e-10 4.55227e-10 9.18744e-10 1.49199e-09 1.94557e-09 1.77688e-09 1.18546e-10 -4.28882e-09 -1.29877e-08 -2.74761e-08 -4.85849e-08 -7.5504e-08 -1.04427e-07 -1.26798e-07 -1.27091e-07 -7.99677e-08 5.36137e-08 3.32021e-07 8.41425e-07 1.7086e-06 3.11989e-06 5.34824e-06 8.79025e-06 1.40149e-05 2.18254e-05 3.33335e-05 5.00487e-05 7.39783e-05 0.000107738 0.00015467 0.000218964 0.00030577 0.000421297 0.000572887 0.000769041 0.00101938 0.00133455 0.00172596 0.00220549 0.00278503 0.00347585 0.00428792 0.00522905 0.006304 0.00751348 0.00885325 0.0103131 0.0118763 0.0135187 0.0152086 0.0169068 0.0185669 0.020136 0.0215559 0.0227649 0.0236994 0.0242968 0.0244972 0.0242468 0.0234998 0.0222212 0.0203891 0.0179962 0.0150511 0.011579 0.00762153 0.00323638 -0.00150432 -0.00651596 -0.0117037 -0.0169656 -0.0221955 -0.0272868 -0.0321353 -0.0366431 -0.0407207 -0.0442902 -0.0472872 -0.0496618 -0.0513807 -0.0524261 -0.0527968 -0.0525066 -0.0515836 -0.050068 -0.0480111 -0.0454723 -0.0425177 -0.0392172 -0.0356429 -0.0318669 -0.0279594 -0.0239877 -0.0200141 -0.0160951 -0.0122809 -0.00861477 -0.00513283 -0.00186413 0.00116927 0.00395189 0.00647434 0.00873291 0.0107287 0.012467 0.0139564 0.0152085 0.0162372 0.0170579 0.0176873 0.0181421 0.0184398 0.0185974 0.0186315 0.018558 0.018392 0.0181476 0.0178375 0.0174739 0.0170673 0.0166272 0.0161622 0.0156798 0.0151863 0.0146875 0.0141881 0.0136922 0.013203 0.0127231 0.0122548 0.0117997 0.0113592 0.0109341 0.010525 0.0101324 0.00975656 0.00939722 0.00905431 0.00872751 0.00841649 0.00812095 0.00784029 0.00757386 0.00732106 0.00708136 0.00685413 0.00663894 0.00643527 0.00624252 0.00606018 0.00588772 0.00572447 0.00557011 0.00542411 0.00528611 0.00515556 0.00503203 0.00491527 0.00480493 0.00470065 0.0046022 0.00450916 0.00442128 0.00433841 0.00426025 0.00418654 0.00411712 0.0040517 0.00399015 0.00393228 0.003878 0.00382709 0.00377945 0.00373495 0.00369344 0.00365488 0.00361911 0.003586 0.0035555 0.00352755 0.00350215 0.00347917 0.00345848 0.00344011 0.00342406 0.00341025 0.00339857 0.00338904 0.0033816 0.00337618 0.00337288 0.00337177 0.00337288 0.00337618 0.0033816 0.00338904 0.00339857 0.00341025 0.00342406 0.00344011 0.00345848 0.00347917 0.00350215 0.00352755 0.0035555 0.003586 0.00361911 0.00365488 0.00369344 0.00373495 0.00377945 0.00382709 0.003878 0.00393228 0.00399015 0.0040517 0.00411712 0.00418654 0.00426025 0.00433841 0.00442128 0.00450916 0.0046022 0.00470065 0.00480493 0.00491527 0.00503203 0.00515556 0.00528611 0.00542411 0.00557011 0.00572447 0.00588772 0.00606018 0.00624252 0.00643527 0.00663894 0.00685413 0.00708136 0.00732106 0.00757386 0.00784029 0.00812095 0.00841649 0.00872751 0.00905431 0.00939722 0.00975656 0.0101324 0.010525 0.0109341 0.0113592 0.0117997 0.0122548 0.0127231 0.013203 0.0136922 0.0141881 0.0146875 0.0151863 0.0156798 0.0161622 0.0166272 0.0170673 0.0174739 0.0178375 0.0181476 0.018392 0.018558 0.0186315 0.0185974 0.0184398 0.0181421 0.0176873 0.0170579 0.0162372 0.0152085 0.0139564 0.012467 0.0107287 0.00873291 0.00647434 0.00395189 0.00116927 -0.00186413 -0.00513283 -0.00861477 -0.0122809 -0.0160951 -0.0200141 -0.0239877 -0.0279594 -0.0318669 -0.0356429 -0.0392172 -0.0425177 -0.0454723 -0.0480111 -0.050068 -0.0515836 -0.0525066 -0.0527968 -0.0524261 -0.0513807 -0.0496618 -0.0472872 -0.0442902 -0.0407207 -0.0366431 -0.0321353 -0.0272868 -0.0221955 -0.0169656 -0.0117037 -0.00651596 -0.00150432 0.00323638 0.00762153 0.011579 0.0150511 0.0179962 0.0203891 0.0222212 0.0234998 0.0242468 0.0244972 0.0242968 0.0236994 0.0227649 0.0215559 0.020136 0.0185669 0.0169068 0.0152086 0.0135187 0.0118763 0.0103131 0.00885325 0.00751348 0.006304 0.00522905 0.00428792 0.00347585 0.00278503 0.00220549 0.00172596 0.00133455 0.00101938 0.000769041 0.000572887 0.000421297 0.00030577 0.000218964 0.00015467 0.000107738 7.39783e-05 5.00487e-05 3.33335e-05 2.18254e-05 1.40149e-05 8.79025e-06 5.34824e-06 3.11989e-06 1.7086e-06 8.41425e-07 3.32021e-07 5.36137e-08 -7.99677e-08 -1.27091e-07 -1.26798e-07 -1.04427e-07 -7.5504e-08 -4.85849e-08 -2.74761e-08 -1.29877e-08 -4.28882e-09 1.18546e-10 1.77688e-09 1.94557e-09 1.49199e-09 9.18744e-10 4.55227e-10 1.61191e-10 1.26791e-11 -4.06075e-11 -4.48974e-11 -3.14253e-11 -1.65435e-11 -6.21831e-12 -8.94341e-13 1.00184e-12 1.17488e-12 7.74236e-13 3.6002e-13 1.03253e-13 -7.53969e-15 -3.34974e-14 -2.59956e-14 -1.28805e-14 -3.9658e-15 -2.02257e-17 9.33196e-16 7.25993e-16 3.3728e-16 8.83152e-17 -9.88908e-18 -2.65231e-17 -1.68859e-17 -6.31903e-18 -8.88407e-19 6.81636e-19 6.38853e-19 2.9061e-19 6.65269e-20 -1.25222e-20 -2.04824e-20 -1.05447e-20 -2.7981e-21 1.81908e-22 6.02787e-22 3.25801e-22 8.74077e-23 -4.46357e-24 -1.70272e-23 -8.8132e-24 -2.13146e-24 2.35202e-25 4.59381e-25 2.07399e-25 3.87867e-26 -1.10074e-26 -1.13248e-26 -4.08851e-27 -4.02556e-28 3.81407e-28 2.403e-28 6.19938e-29 -3.48166e-30 -9.92479e-30 -4.08781e-30 -5.53825e-31 2.79376e-31 1.9368e-31 4.92632e-32 -2.83341e-33 -7.23754e-33 -2.69368e-33 -2.51437e-34 2.15038e-34 1.16282e-34 2.16784e-35 -4.68292e-36 -4.26585e-36 -1.1233e-36 4.11083e-38 1.37541e-37 4.67529e-38 2.58203e-39 -3.97215e-39 -1.69557e-39 -1.94371e-40 1.03925e-40 5.55391e-41 8.65054e-42 -2.57391e-42 -1.73842e-42 -3.40647e-43 1.62849e-44 9.49783e-45 0 0 0 0 0 0 0 0 0 0 0 0 0 0 0 0 0 0 0 0 0 0 
0 0 0 0 0 0 0 0 0 0 0 0 0 0 0 0 0 0 0 0 0 5.04854e-45 4.93407e-44 7.40904e-44 -4.33718e-43 -2.53741e-42 -4.62428e-42 9.50089e-42 7.88877e-41 1.74689e-40 -1.87071e-40 -2.37429e-39 -6.37352e-39 9.33653e-40 6.4171e-38 2.13059e-37 1.37003e-37 -1.49528e-36 -6.42667e-36 -8.74153e-36 2.71036e-35 1.70979e-34 3.55902e-34 -2.39985e-34 -3.86028e-33 -1.13563e-32 -7.28712e-33 6.79008e-32 2.94269e-31 4.7629e-31 -6.74234e-31 -6.0487e-30 -1.57555e-29 -8.59368e-30 8.83812e-29 3.69371e-28 6.32381e-28 -4.73743e-28 -6.1296e-27 -1.78527e-26 -1.92746e-26 5.51466e-26 3.19632e-25 7.3606e-25 4.47547e-25 -3.19623e-24 -1.38234e-23 -2.75005e-23 -9.26239e-24 1.34982e-22 5.17346e-22 9.75037e-22 3.34014e-22 -4.41874e-21 -1.69208e-20 -3.31313e-20 -2.05201e-20 1.07611e-19 4.7204e-19 1.03739e-18 1.0946e-18 -1.5093e-18 -1.04536e-17 -2.77194e-17 -4.29457e-17 -1.36686e-17 1.51759e-16 5.6526e-16 1.19806e-15 1.49302e-15 -2.09407e-16 -6.95707e-15 -2.18991e-14 -4.32663e-14 -5.3654e-14 -5.13513e-15 1.88749e-13 6.26689e-13 1.31409e-12 1.93314e-12 1.49397e-12 -1.98458e-12 -1.13595e-11 -2.90872e-11 -5.38592e-11 -7.44963e-11 -6.16789e-11 3.92927e-11 3.07527e-10 8.25681e-10 1.62467e-09 2.58141e-09 3.26795e-09 2.77215e-09 -4.56472e-10 -8.64352e-09 -2.44818e-08 -5.05328e-08 -8.80965e-08 -1.3544e-07 -1.85305e-07 -2.21614e-07 -2.15204e-07 -1.1819e-07 1.4385e-07 6.83252e-07 1.66727e-06 3.34349e-06 6.07697e-06 1.04028e-05 1.70978e-05 2.72745e-05 4.24997e-05 6.49404e-05 9.75345e-05 0.000144188 0.000209994 0.000301462 0.000426762 0.000595948 0.000821158 0.00111676 0.00149942 0.00198802 0.00260346 0.00336823 0.00430579 0.00543965 0.00679229 0.0083837 0.0102298 0.0123407 0.0147186 0.0173563 0.0202352 0.0233234 0.0265753 0.0299302 0.0333125 0.0366323 0.039787 0.0426633 0.0451405 0.0470938 0.0483993 0.0489384 0.0486031 0.0473007 0.0449592 0.0415309 0.0369966 0.0313677 0.0246878 0.0170328 0.00851 -0.00074462 -0.0105699 -0.0207839 -0.0311895 -0.0415808 -0.051749 -0.0614892 -0.0706067 -0.0789225 -0.0862788 -0.0925429 -0.0976104 -0.101407 -0.103891 -0.10505 -0.104902 -0.103494 -0.100898 -0.0972064 -0.0925298 -0.0869926 -0.0807282 -0.0738755 -0.0665745 -0.058963 -0.0511734 -0.0433305 -0.0355483 -0.0279291 -0.0205622 -0.0135234 -0.00687491 -0.000665508 0.00506895 0.0103049 0.0150299 0.0192414 0.0229453 0.0261549 0.0288896 0.0311738 0.0330356 0.0345055 0.0356156 0.0363989 0.0368884 0.0371169 0.0371156 0.0369145 0.0365419 0.0360241 0.0353854 0.0346477 0.0338313 0.0329539 0.0320314 0.0310774 0.0301043 0.0291225 0.0281408 0.0271665 0.0262059 0.0252642 0.0243452 0.0234522 0.0225877 0.0217531 0.0209497 0.0201784 0.0194394 0.0187326 0.0180577 0.0174143 0.0168014 0.0162185 0.0156645 0.0151384 0.0146391 0.0141654 0.0137161 0.0132905 0.0128873 0.0125054 0.0121439 0.0118017 0.0114777 0.0111712 0.0108812 0.0106069 0.0103472 0.0101017 0.00986946 0.00964981 0.00944215 0.00924593 0.00906052 0.00888544 0.00872022 0.00856433 0.00841728 0.00827866 0.00814805 0.00802522 0.00790977 0.00780131 0.00769968 0.00760446 0.00751545 0.00743243 0.00735525 0.00728366 0.00721752 0.00715665 0.00710086 0.00705001 0.00700396 0.00696258 0.00692585 0.00689364 0.00686588 0.00684246 0.00682328 0.0068084 0.00679777 0.00679136 0.00678924 0.00679136 0.00679777 0.0068084 0.00682328 0.00684246 0.00686588 0.00689364 0.00692585 0.00696258 0.00700396 0.00705001 0.00710086 0.00715665 0.00721752 0.00728366 0.00735525 0.00743243 0.00751545 0.00760446 0.00769968 0.00780131 0.00790977 0.00802522 0.00814805 0.00827866 0.00841728 0.00856433 0.00872022 0.00888544 0.00906052 0.00924593 0.00944215 0.00964981 0.00986946 0.0101017 0.0103472 0.0106069 0.0108812 0.0111712 0.0114777 0.0118017 0.0121439 0.0125054 0.0128873 0.0132905 0.0137161 0.0141654 0.0146391 0.0151384 0.0156645 0.0162185 0.0168014 0.0174143 0.0180577 0.0187326 0.0194394 0.0201784 0.0209497 0.0217531 0.0225877 0.0234522 0.0243452 0.0252642 0.0262059 0.0271665 0.0281408 0.0291225 0.0301043 0.0310774 0.0320314 0.0329539 0.0338313 0.0346477 0.0353854 0.0360241 0.0365419 0.0369145 0.0371156 0.0371169 0.0368884 0.0363989 0.0356156 0.0345055 0.0330356 0.0311738 0.0288896 0.0261549 0.0229453 0.0192414 0.0150299 0.0103049 0.00506895 -0.000665508 -0.00687491 -0.0135234 -0.0205622 -0.0279291 -0.0355483 -0.0433305 -0.0511734 -0.058963 -0.0665745 -0.0738755 -0.0807282 -0.0869926 -0.0925298 -0.0972064 -0.100898 -0.103494 -0.104902 -0.10505 -0.103891 -0.101407 -0.0976104 -0.0925429 -0.0862788 -0.0789225 -0.0706067 -0.0614892 -0.051749 -0.0415808 -0.0311895 -0.0207839 -0.0105699 -0.00074462 0.00851 0.0170328 0.0246878 0.0313677 0.0369966 0.0415309 0.0449592 0.0473007 0.0486031 0.0489384 0.0483993 0.0470938 0.0451405 0.0426633 0.039787 0.0366323 0.0333125 0.0299302 0.0265753 0.0233234 0.0202352 0.0173563 0.0147186 0.0123407 0.0102298 0.0083837 0.00679229 0.00543965 0.00430579 0.00336823 0.00260346 0.00198802 0.00149942 0.00111676 0.000821158 0.000595948 0.000426762 0.000301462 0.000209994 0.000144188 9.75345e-05 6.49404e-05 4.24997e-05 2.72745e-05 1.70978e-05 1.04028e-05 6.07697e-06 3.34349e-06 1.66727e-06 6.83252e-07 1.4385e-07 -1.1819e-07 -2.15204e-07 -2.21614e-07 -1.85305e-07 -1.3544e-07 -8.80965e-08 -5.05328e-08 -2.44818e-08 -8.64352e-09 -4.56472e-10 2.77215e-09 3.26795e-09 2.58141e-09 1.62467e-09 8.25681e-10 3.07527e-10 3.92927e-11 -6.16789e-11 -7.44963e-11 -5.38592e-11 -2.90872e-11 -1.13595e-11 -1.98458e-12 1.49397e-12 1.93314e-12 1.31409e-12 6.26689e-13 1.88749e-13 -5.13513e-15 -5.3654e-14 -4.32663e-14 -2.18991e-14 -6.95707e-15 -2.09407e-16 1.49302e-15 1.19806e-15 5.6526e-16 1.51759e-16 -1.36686e-17 -4.29457e-17 -2.77194e-17 -1.04536e-17 -1.5093e-18 1.0946e-18 1.03739e-18 4.7204e-19 1.07611e-19 -2.05201e-20 -3.31313e-20 -1.69208e-20 -4.41874e-21 3.34014e-22 9.75037e-22 5.17346e-22 1.34982e-22 -9.26239e-24 -2.75005e-23 -1.38234e-23 -3.19623e-24 4.47547e-25 7.3606e-25 3.19632e-25 5.51466e-26 -1.92746e-26 -1.78527e-26 -6.1296e-27 -4.73743e-28 6.32381e-28 3.69371e-28 8.83812e-29 -8.59368e-30 -1.57555e-29 -6.0487e-30 -6.74234e-31 4.7629e-31 2.94269e-31 6.79008e-32 -7.28712e-33 -1.13563e-32 -3.86028e-33 -2.39985e-34 3.55902e-34 1.70979e-34 2.71036e-35 -8.74153e-36 -6.42667e-36 -1.49528e-36 1.37003e-37 2.13059e-37 6.4171e-38 9.33653e-40 -6.37352e-39 -2.37429e-39 -1.87071e-40 1.74694e-40 7.89027e-41 9.50036e-42 -4.60546e-42 -2.52732e-42 -4.33718e-43 7.40904e-44 4.93407e-44 5.04854e-45 0 0 0 0 0 0 0 0 0 0 0 0 0 0 0 0 0 0 0 0 
0 0 0 0 0 0 0 0 0 0 0 0 0 0 0 0 0 0 0 -0 0 3.81664e-44 1.59549e-43 -9.41212e-44 -2.37938e-42 -7.68297e-42 -2.55007e-42 6.87169e-41 2.60443e-40 2.04037e-40 -1.88822e-39 -8.51498e-39 -1.09939e-38 4.39744e-38 2.56253e-37 4.70794e-37 -7.57223e-37 -6.94162e-36 -1.70949e-35 3.28151e-36 1.63055e-34 5.3469e-34 4.34918e-34 -3.0749e-33 -1.43082e-32 -2.37692e-32 3.59186e-32 3.17905e-31 8.09782e-31 2.72328e-31 -5.41273e-30 -2.08118e-29 -3.05119e-29 5.16611e-29 4.05567e-28 1.02023e-27 5.80048e-28 -5.29504e-27 -2.23433e-26 -4.01445e-26 1.50356e-26 3.23246e-25 1.0113e-24 1.35051e-24 -1.91404e-24 -1.51872e-23 -4.00136e-23 -4.28962e-23 9.75276e-23 5.91131e-22 1.43993e-21 1.46175e-21 -3.2889e-21 -1.9439e-20 -4.7694e-20 -5.52647e-20 6.9813e-20 5.28584e-19 1.41859e-18 2.06559e-18 -2.10659e-19 -1.09416e-17 -3.55757e-17 -6.63535e-17 -5.355e-17 1.28932e-16 6.70551e-16 1.64088e-15 2.46934e-15 1.05275e-15 -6.98843e-15 -2.72065e-14 -6.01592e-14 -8.65596e-14 -4.40678e-14 1.91186e-13 7.81047e-13 1.79299e-12 2.8821e-12 2.76955e-12 -1.30604e-12 -1.36125e-11 -3.83691e-11 -7.51783e-11 -1.10282e-10 -1.04143e-10 2.03754e-11 3.78994e-10 1.09897e-09 2.24206e-09 3.65801e-09 4.76473e-09 4.28445e-09 1.48209e-11 -1.12273e-08 -3.3301e-08 -6.98625e-08 -1.22718e-07 -1.89272e-07 -2.58997e-07 -3.08867e-07 -2.97579e-07 -1.5802e-07 2.1314e-07 9.70753e-07 2.34441e-06 4.67358e-06 8.45952e-06 1.44389e-05 2.36846e-05 3.77365e-05 5.87674e-05 8.97832e-05 0.000134858 0.0001994 0.000290447 0.000416971 0.000590197 0.000823886 0.00113459 0.0015418 0.00206799 0.00273845 0.00358096 0.00462506 0.00590111 0.00743902 0.00926651 0.0114072 0.0138782 0.0166878 0.0198331 0.0232969 0.0270464 0.0310303 0.0351784 0.0394006 0.0435876 0.0476121 0.0513315 0.0545916 0.0572314 0.0590884 0.0600056 0.0598373 0.0584568 0.0557631 0.0516862 0.0461929 0.039291 0.0310303 0.0215046 0.0108498 -0.000759201 -0.0131124 -0.0259715 -0.0390774 -0.0521581 -0.0649375 -0.0771446 -0.0885223 -0.0988351 -0.107876 -0.115474 -0.121494 -0.125846 -0.12848 -0.129391 -0.128614 -0.126219 -0.122312 -0.117027 -0.11052 -0.102964 -0.0945427 -0.0854451 -0.0758602 -0.0659711 -0.0559524 -0.0459653 -0.0361555 -0.0266515 -0.0175625 -0.00897892 -0.000971627 0.0064073 0.0131222 0.0191543 0.0244986 0.0291631 0.0331669 0.0365373 0.0393086 0.0415198 0.0432147 0.0444386 0.045238 0.0456593 0.0457474 0.0455462 0.045097 0.0444385 0.0436062 0.0426325 0.0415473 0.0403763 0.039143 0.0378676 0.0365676 0.0352583 0.033952 0.0326593 0.0313889 0.0301477 0.0289409 0.0277728 0.0266463 0.0255639 0.0245265 0.0235349 0.0225888 0.0216878 0.0208313 0.0200181 0.0192469 0.0185164 0.0178249 0.0171708 0.0165524 0.0159678 0.0154157 0.0148944 0.0144022 0.0139371 0.0134981 0.0130839 0.0126926 0.0123231 0.0119742 0.0116446 0.0113335 0.0110396 0.0107621 0.0104998 0.0102519 0.0100179 0.00979664 0.00958748 0.00938989 0.00920309 0.00902689 0.00886062 0.00870362 0.0085555 0.00841583 0.00828416 0.00816018 0.00804363 0.00793415 0.00783116 0.00773457 0.00764404 0.0075594 0.00748036 0.00740691 0.00733878 0.00727594 0.00721809 0.007165 0.00711659 0.00707261 0.00703319 0.00699828 0.00696758 0.00694105 0.00691862 0.00690027 0.00688613 0.00687614 0.00687015 0.00686818 0.00687015 0.00687614 0.00688613 0.00690027 0.00691862 0.00694105 0.00696758 0.00699828 0.00703319 0.00707261 0.00711659 0.007165 0.00721809 0.00727594 0.00733878 0.00740691 0.00748036 0.0075594 0.00764404 0.00773457 0.00783116 0.00793415 0.00804363 0.00816018 0.00828416 0.00841583 0.0085555 0.00870362 0.00886062 0.00902689 0.00920309 0.00938989 0.00958748 0.00979664 0.0100179 0.0102519 0.0104998 0.0107621 0.0110396 0.0113335 0.0116446 0.0119742 0.0123231 0.0126926 0.0130839 0.0134981 0.0139371 0.0144022 0.0148944 0.0154157 0.0159678 0.0165524 0.0171708 0.0178249 0.0185164 0.0192469 0.0200181 0.0208313 0.0216878 0.0225888 0.0235349 0.0245265 0.0255639 0.0266463 0.0277728 0.0289409 0.0301477 0.0313889 0.0326593 0.033952 0.0352583 0.0365676 0.0378676 0.039143 0.0403763 0.0415473 0.0426325 0.0436062 0.0444385 0.045097 0.0455462 0.0457474 0.0456593 0.045238 0.0444386 0.0432147 0.0415198 0.0393086 0.0365373 0.0331669 0.0291631 0.0244986 0.0191543 0.0131222 0.0064073 -0.000971627 -0.00897892 -0.0175625 -0.0266515 -0.0361555 -0.0459653 -0.0559524 -0.0659711 -0.0758602 -0.0854451 -0.0945427 -0.102964 -0.11052 -0.117027 -0.122312 -0.126219 -0.128614 -0.129391 -0.12848 -0.125846 -0.121494 -0.115474 -0.107876 -0.0988351 -0.0885223 -0.0771446 -0.0649375 -0.0521581 -0.0390774 -0.0259715 -0.0131124 -0.000759201 0.0108498 0.0215046 0.0310303 0.039291 0.0461929 0.0516862 0.0557631 0.0584568 0.0598373 0.0600056 0.0590884 0.0572314 0.0545916 0.0513315 0.0476121 0.0435876 0.0394006 0.0351784 0.0310303 0.0270464 0.0232969 0.0198331 0.0166878 0.0138782 0.0114072 0.00926651 0.00743902 0.00590111 0.00462506 0.00358096 0.00273845 0.00206799 0.0015418 0.00113459 0.000823886 0.000590197 0.000416971 0.000290447 0.0001994 0.000134858 8.97832e-05 5.87674e-05 3.77365e-05 2.36846e-05 1.44389e-05 8.45952e-06 4.67358e-06 2.34441e-06 9.70753e-07 2.1314e-07 -1.5802e-07 -2.97579e-07 -3.08867e-07 -2.58997e-07 -1.89272e-07 -1.22718e-07 -6.98625e-08 -3.3301e-08 -1.12273e-08 1.48209e-11 4.28445e-09 4.76473e-09 3.65801e-09 2.24206e-09 1.09897e-09 3.78994e-10 2.03754e-11 -1.04143e-10 -1.10282e-10 -7.51783e-11 -3.83691e-11 -1.36125e-11 -1.30604e-12 2.76955e-12 2.8821e-12 1.79299e-12 7.81047e-13 1.91186e-13 -4.40678e-14 -8.65596e-14 -6.01592e-14 -2.72065e-14 -6.98843e-15 1.05275e-15 2.46934e-15 1.64088e-15 6.70551e-16 1.28932e-16 -5.355e-17 -6.63535e-17 -3.55757e-17 -1.09416e-17 -2.10659e-19 2.06559e-18 1.41859e-18 5.28584e-19 6.9813e-20 -5.52647e-20 -4.7694e-20 -1.9439e-20 -3.2889e-21 1.46175e-21 1.43993e-21 5.91131e-22 9.75276e-23 -4.28962e-23 -4.00136e-23 -1.51872e-23 -1.91404e-24 1.35051e-24 1.0113e-24 3.23246e-25 1.50356e-26 -4.01445e-26 -2.23433e-26 -5.29504e-27 5.80048e-28 1.02023e-27 4.05567e-28 5.16611e-29 -3.05119e-29 -2.08118e-29 -5.41273e-30 2.72328e-31 8.09782e-31 3.17905e-31 3.59186e-32 -2.37692e-32 -1.43082e-32 -3.0749e-33 4.34918e-34 5.3469e-34 1.63055e-34 3.28151e-36 -1.70949e-35 -6.94162e-36 -7.57223e-37 4.70794e-37 2.56253e-37 4.39744e-38 -1.09939e-38 -8.51498e-39 -1.88822e-39 2.04059e-40 2.60457e-40 6.86103e-41 -2.5199e-42 -7.65022e-42 -2.37938e-42 -9.41212e-44 1.59549e-43 3.81664e-44 0 -0 0 0 0 0 0 0 0 0 0 0 0 0 0 0 0 0 0 0 
0 0 0 0 0 0 0 0 0 0 0 0 0 0 0 0 0 0 -0 0 4.91662e-44 1.70809e-43 -1.83185e-43 -3.00979e-42 -9.13905e-42 -1.20366e-42 8.84935e-41 3.14385e-40 1.85098e-40 -2.50705e-39 -1.04645e-38 -1.1542e-38 6.13908e-38 3.21973e-37 5.29957e-37 -1.18123e-36 -8.97263e-36 -2.01785e-35 1.13481e-35 2.19236e-34 6.57062e-34 3.59214e-34 -4.41585e-33 -1.83108e-32 -2.61613e-32 6.15676e-32 4.2713e-31 9.77355e-31 -3.71718e-32 -7.83987e-30 -2.67863e-29 -3.22161e-29 9.20409e-29 5.5889e-28 1.24816e-27 2.30524e-28 -8.181e-27 -2.98258e-26 -4.54943e-26 4.91445e-26 4.78498e-25 1.3155e-24 1.35664e-24 -3.91261e-24 -2.21294e-23 -5.10873e-23 -3.70028e-23 1.87047e-22 8.62783e-22 1.83074e-21 1.18216e-21 -6.54187e-21 -2.89558e-20 -6.17193e-20 -4.98827e-20 1.65318e-19 8.24224e-19 1.91389e-18 2.19689e-18 -2.31399e-18 -1.87023e-17 -5.12563e-17 -8.115e-17 -2.79527e-17 2.84184e-16 1.06982e-15 2.26355e-15 2.75416e-15 -7.3032e-16 -1.40896e-14 -4.30291e-14 -8.26304e-14 -9.57555e-14 1.53899e-14 4.19813e-13 1.29218e-12 2.58075e-12 3.52936e-12 1.99981e-12 -6.03664e-12 -2.59302e-11 -6.11878e-11 -1.05965e-10 -1.32408e-10 -7.51216e-11 1.79036e-10 7.79428e-10 1.85391e-09 3.37778e-09 4.95226e-09 5.50452e-09 2.97366e-09 -5.88362e-09 -2.53617e-08 -6.00922e-08 -1.13485e-07 -1.85109e-07 -2.66875e-07 -3.37944e-07 -3.58212e-07 -2.59918e-07 6.36932e-08 7.74679e-07 2.11494e-06 4.44348e-06 8.29221e-06 1.44463e-05 2.40561e-05 3.87851e-05 6.10001e-05 9.40047e-05 0.000142317 0.000211988 0.00031096 0.000449442 0.000640305 0.000899457 0.00124616 0.00170329 0.00229738 0.00305856 0.0040201 0.00521774 0.00668852 0.00846928 0.0105946 0.0130945 0.0159915 0.0192978 0.023012 0.0271158 0.0315713 0.0363185 0.0412736 0.0463284 0.0513503 0.0561841 0.0606553 0.0645745 0.0677432 0.0699608 0.0710329 0.0707797 0.0690444 0.0657024 0.0606683 0.0539032 0.0454187 0.0352809 0.0236102 0.0105804 -0.00358582 -0.0186228 -0.0342295 -0.0500792 -0.0658309 -0.08114 -0.0956698 -0.109103 -0.121153 -0.131568 -0.140146 -0.146731 -0.151225 -0.153582 -0.153811 -0.151972 -0.148172 -0.142558 -0.135311 -0.126639 -0.116769 -0.105939 -0.094391 -0.0823624 -0.0700821 -0.0577661 -0.0456098 -0.033788 -0.0224511 -0.011725 -0.00170971 0.00751945 0.0159103 0.0234329 0.0300767 0.0358489 0.0407716 0.0448792 0.0482159 0.0508334 0.0527888 0.054142 0.0549546 0.055288 0.0552029 0.0547568 0.0540046 0.0529977 0.0517832 0.0504037 0.0488976 0.0472988 0.0456372 0.0439383 0.0422247 0.0405145 0.0388235 0.0371639 0.035546 0.0339773 0.032464 0.03101 0.0296178 0.0282891 0.0270245 0.0258236 0.0246857 0.0236094 0.0225925 0.0216329 0.0207286 0.0198769 0.0190752 0.0183208 0.0176112 0.0169445 0.0163176 0.0157282 0.0151741 0.0146531 0.0141634 0.0137024 0.0132686 0.0128608 0.0124766 0.0121146 0.0117734 0.0114518 0.0111487 0.0108629 0.0105935 0.0103392 0.0100991 0.00987244 0.0096583 0.00945603 0.00926516 0.00908488 0.00891445 0.00875375 0.00860185 0.00845823 0.00832273 0.00819497 0.00807452 0.00796113 0.00785447 0.00775407 0.00765986 0.00757113 0.00748817 0.00741063 0.00733818 0.0072708 0.00720828 0.0071505 0.00709727 0.00704841 0.00700376 0.00696345 0.00692717 0.00689486 0.00686666 0.00684217 0.00682145 0.00680471 0.00679156 0.00678236 0.00677703 0.00677522 0.00677703 0.00678236 0.00679156 0.00680471 0.00682145 0.00684217 0.00686666 0.00689486 0.00692717 0.00696345 0.00700376 0.00704841 0.00709727 0.0071505 0.00720828 0.0072708 0.00733818 0.00741063 0.00748817 0.00757113 0.00765986 0.00775407 0.00785447 0.00796113 0.00807452 0.00819497 0.00832273 0.00845823 0.00860185 0.00875375 0.00891445 0.00908488 0.00926516 0.00945603 0.0096583 0.00987244 0.0100991 0.0103392 0.0105935 0.0108629 0.0111487 0.0114518 0.0117734 0.0121146 0.0124766 0.0128608 0.0132686 0.0137024 0.0141634 0.0146531 0.0151741 0.0157282 0.0163176 0.0169445 0.0176112 0.0183208 0.0190752 0.0198769 0.0207286 0.0216329 0.0225925 0.0236094 0.0246857 0.0258236 0.0270245 0.0282891 0.0296178 0.03101 0.032464 0.0339773 0.035546 0.0371639 0.0388235 0.0405145 0.0422247 0.0439383 0.0456372 0.0472988 0.0488976 0.0504037 0.0517832 0.0529977 0.0540046 0.0547568 0.0552029 0.055288 0.0549546 0.054142 0.0527888 0.0508334 0.0482159 0.0448792 0.0407716 0.0358489 0.0300767 0.0234329 0.0159103 0.00751945 -0.00170971 -0.011725 -0.0224511 -0.033788 -0.0456098 -0.0577661 -0.0700821 -0.0823624 -0.094391 -0.105939 -0.116769 -0.126639 -0.135311 -0.142558 -0.148172 -0.151972 -0.153811 -0.153582 -0.151225 -0.146731 -0.140146 -0.131568 -0.121153 -0.109103 -0.0956698 -0.08114 -0.0658309 -0.0500792 -0.0342295 -0.0186228 -0.00358582 0.0105804 0.0236102 0.0352809 0.0454187 0.0539032 0.0606683 0.0657024 0.0690444 0.0707797 0.0710329 0.0699608 0.0677432 0.0645745 0.0606553 0.0561841 0.0513503 0.0463284 0.0412736 0.0363185 0.0315713 0.0271158 0.023012 0.0192978 0.0159915 0.0130945 0.0105946 0.00846928 0.00668852 0.00521774 0.0040201 0.00305856 0.00229738 0.00170329 0.00124616 0.000899457 0.000640305 0.000449442 0.00031096 0.000211988 0.000142317 9.40047e-05 6.10001e-05 3.87851e-05 2.40561e-05 1.44463e-05 8.29221e-06 4.44348e-06 2.11494e-06 7.74679e-07 6.36932e-08 -2.59918e-07 -3.58212e-07 -3.37944e-07 -2.66875e-07 -1.85109e-07 -1.13485e-07 -6.00922e-08 -2.53617e-08 -5.88362e-09 2.97366e-09 5.50452e-09 4.95226e-09 3.37778e-09 1.85391e-09 7.79428e-10 1.79036e-10 -7.51216e-11 -1.32408e-10 -1.05965e-10 -6.11878e-11 -2.59302e-11 -6.03664e-12 1.99981e-12 3.52936e-12 2.58075e-12 1.29218e-12 4.19813e-13 1.53899e-14 -9.57555e-14 -8.26304e-14 -4.30291e-14 -1.40896e-14 -7.3032e-16 2.75416e-15 2.26355e-15 1.06982e-15 2.84184e-16 -2.79527e-17 -8.115e-17 -5.12563e-17 -1.87023e-17 -2.31399e-18 2.19689e-18 1.91389e-18 8.24224e-19 1.65318e-19 -4.98827e-20 -6.17193e-20 -2.89558e-20 -6.54187e-21 1.18216e-21 1.83074e-21 8.62783e-22 1.87047e-22 -3.70028e-23 -5.10873e-23 -2.21294e-23 -3.91261e-24 1.35664e-24 1.3155e-24 4.78498e-25 4.91445e-26 -4.54943e-26 -2.98258e-26 -8.181e-27 2.30524e-28 1.24816e-27 5.5889e-28 9.20409e-29 -3.22161e-29 -2.67863e-29 -7.83987e-30 -3.71718e-32 9.77355e-31 4.2713e-31 6.15676e-32 -2.61613e-32 -1.83108e-32 -4.41585e-33 3.59214e-34 6.57062e-34 2.19236e-34 1.13481e-35 -2.01785e-35 -8.97263e-36 -1.18123e-36 5.29957e-37 3.21973e-37 6.13908e-38 -1.1542e-38 -1.04644e-38 -2.50706e-39 1.84896e-40 3.13656e-40 8.82625e-41 -1.20092e-42 -9.10896e-42 -2.99748e-42 -1.83185e-43 1.70809e-43 4.91662e-44 0 -0 0 0 0 0 0 0 0 0 0 0 0 0 0 0 0 0 0 