<?xml version="1.0"?>
<VTKFile type="ImageData" version="0.1" byte_order="LittleEndian">
<ImageData WholeExtent="0 599 0 599 0 0" Origin="0 0 0" Spacing="5 5 0">
<Piece Extent="0 599 0 599 0 0">
<PointData Scalars="Amplitude">
<DataArray type="Float32" Name="Amplitude" format="ascii">
0 0 0 0 0 0 0 0 0 0 0 0 0 0 0 0 0 0 0 0 0 0 0 0 0 0 0 0 0 0 0 0 0 0 0 0 0 0 0 0 0 0 0 0 0 0 0 0 0 0 0 0 0 0 0 0 0 0 0 0 0 0 0 0 0 0 0 0 0 0 0 0 0 0 0 0 0 0 0 0 0 0 0 0 0 0 0 0 0 0 0 0 0 0 0 0 0 0 0 0 0 0 0 0 0 0 0 0 0 0 0 0 0 0 0 0 0 0 0 0 0 0 0 0 0 0 0 0 0 0 0 0 0 0 0 0 0 0 0 0 0 0 0 0 0 0 0 0 0 0 0 0 0 0 0 0 0 0 0 0 0 0 0 0 0 0 0 0 0 0 0 0 0 0 0 0 0 0 0 0 0 0 0 0 0 0 0 0 0 0 0 0 0 0 0 0 0 0 0 0 0 0 0 0 0 0 0 0 0 0 0 0 0 0 0 0 0 0 0 0 0 0 0 0 0 0 0 0 0 0 0 0 0 0 0 0 0 0 0 0 0 0 0 0 0 0 0 0 0 0 0 0 0 0 0 0 0 0 0 0 0 0 0 0 0 0 0 0 0 0 0 0 0 0 0 0 0 0 0 0 0 0 0 0 0 0 0 0 0 0 0 0 0 0 0 0 0 0 0 0 0 0 0 0 0 0 0 0 0 0 0 0 0 0 0 0 0 0 0 0 0 0 0 0 0 0 0 0 0 0 0 0 0 0 0 0 0 0 0 0 0 0 0 0 0 0 0 0 0 0 0 0 0 0 0 0 0 0 0 0 0 0 0 0 0 0 0 0 0 0 0 0 0 0 0 0 0 0 0 0 0 0 0 0 0 0 0 0 0 0 0 0 0 0 0 0 0 0 0 0 0 0 0 0 0 0 0 0 0 0 0 0 0 0 0 0 0 0 0 0 0 0 0 0 0 0 0 0 0 0 0 0 0 0 0 0 0 0 0 0 0 0 0 0 0 0 0 0 0 0 0 0 0 0 0 0 0 0 0 0 0 0 0 0 0 0 0 0 0 0 0 0 0 0 0 0 0 0 0 0 0 0 0 0 0 0 0 0 0 0 0 0 0 0 0 0 0 0 0 0 0 0 0 0 0 0 0 0 0 0 0 0 0 0 0 0 0 0 0 0 0 0 0 0 0 0 0 0 0 0 0 0 0 0 0 0 0 0 0 0 0 0 0 0 0 0 0 0 0 0 0 0 0 0 0 0 0 0 0 0 0 0 0 0 0 0 0 0 0 0 0 0 0 0 0 0 0 0 0 0 0 0 0 0 0 0 0 0 0 0 0 0 0 0 0 0 0 0 0 0 
0 0 0 0 0 0 0 0 0 0 0 0 0 0 0 0 0 0 0 0 0 0 0 0 0 0 0 0 0 0 0 0 0 0 0 0 0 0 0 0 0 0 0 0 0 0 0 0 0 0 0 0 0 0 0 0 0 0 0 0 0 0 0 0 0 0 0 0 0 0 0 0 0 0 0 0 0 0 0 0 0 0 0 0 0 0 0 0 0 0 0 0 0 0 0 0 0 0 0 0 0 0 0 0 0 0 0 0 0 0 0 0 0 0 0 0 0 0 0 0 0 0 0 0 0 0 0 0 0 0 0 0 0 0 0 0 0 0 0 0 0 0 0 0 0 0 0 0 0 0 0 0 0 0 0 0 0 0 0 0 0 0 0 0 0 0 0 0 0 0 0 0 0 0 0 0 0 0 0 0 0 0 0 0 0 0 0 0 0 0 0 0 0 0 0 0 0 0 0 0 0 0 0 0 0 0 0 0 0 0 0 0 0 0 0 0 0 0 0 0 0 0 0 0 0 0 0 0 0 0 0 0 0 0 0 0 0 0 0 0 0 0 0 0 0 0 0 0 0 0 0 0 0 0 0 0 0 0 0 0 0 0 0 0 0 0 0 0 0 0 0 0 0 0 0 0 0 0 0 0 0 0 0 0 0 0 0 0 0 0 0 0 0 0 0 0 0 0 0 0 0 0 0 0 0 0 0 0 0 0 0 0 0 0 0 0 0 0 0 0 0 0 0 0 0 0 0 0 0 0 0 0 0 0 0 0 0 0 0 0 0 0 0 0 0 0 0 0 0 0 0 0 0 0 0 0 0 0 0 0 0 0 0 0 0 0 0 0 0 0 0 0 0 0 0 0 0 0 0 0 0 0 0 0 0 0 0 0 0 0 0 0 0 0 0 0 0 0 0 0 0 0 0 0 0 0 0 0 0 0 0 0 0 0 0 0 0 0 0 0 0 0 0 0 0 0 0 0 0 0 0 0 0 0 0 0 0 0 0 0 0 0 0 0 0 0 0 0 0 0 0 0 0 0 0 0 0 0 0 0 0 0 0 0 0 0 0 0 0 0 0 0 0 0 0 0 0 0 0 0 0 0 0 0 0 0 0 0 0 0 0 0 0 0 0 0 0 0 0 0 0 0 0 0 0 0 0 0 0 0 0 0 0 0 0 0 0 0 0 0 0 0 0 0 0 0 0 0 0 0 0 0 0 0 0 0 0 0 0 0 0 0 0 0 0 0 0 0 0 0 0 0 0 0 0 0 0 0 0 0 0 0 0 0 0 0 0 0 0 0 0 0 0 0 0 0 0 0 0 0 0 0 0 0 0 0 0 0 0 0 0 0 0 0 0 0 0 0 0 0 
0 0 1.14855e-34 5.48096e-33 2.44301e-32 6.73569e-32 -2.79823e-32 -9.67662e-31 -3.61763e-30 -3.38161e-30 2.65746e-29 1.39545e-28 2.67157e-28 -3.4717e-28 -3.8075e-27 -1.09485e-26 -6.82298e-27 6.76146e-26 2.97733e-25 5.20972e-25 -4.56285e-25 -5.49011e-24 -1.57136e-23 -1.50825e-23 5.78186e-23 3.01211e-22 6.40493e-22 1.90836e-22 -3.53239e-21 -1.32736e-20 -2.28294e-20 5.17799e-21 1.58024e-19 5.05627e-19 7.74395e-19 -3.40635e-19 -5.62447e-18 -1.70923e-17 -2.63268e-17 5.06657e-18 1.59241e-16 5.08764e-16 8.78108e-16 3.37353e-16 -3.28949e-15 -1.26549e-14 -2.62373e-14 -2.70698e-14 3.26141e-14 2.31947e-13 6.20051e-13 1.02353e-12 6.92963e-13 -2.04771e-12 -9.55816e-12 -2.28785e-11 -3.65449e-11 -2.98932e-11 4.16629e-11 2.44555e-10 6.34052e-10 1.16484e-09 1.5292e-09 9.44031e-10 -2.02061e-09 -9.3826e-09 -2.3183e-08 -4.41118e-08 -6.90874e-08 -8.76904e-08 -7.74392e-08 2.28781e-09 2.18575e-07 6.77759e-07 1.54674e-06 3.08872e-06 5.72062e-06 1.00994e-05 1.72437e-05 2.86944e-05 4.67165e-05 7.45415e-05 0.000116648 0.000179075 0.000269745 0.000398784 0.000578775 0.000824879 0.00115475 0.00158814 0.0021461 0.0028497 0.00371828 0.00476715 0.00600491 0.00743045 0.00902981 0.0107734 0.0126136 0.0144834 0.0162965 0.0179489 0.0193226 0.0202912 0.0207273 0.0205111 0.0195406 0.0177406 0.0150726 0.0115411 0.00719872 0.00214766 -0.00346267 -0.00944164 -0.0155668 -0.0215963 -0.0272835 -0.0323913 -0.0367073 -0.0400567 -0.0423126 -0.043402 -0.04331 -0.0420776 -0.039797 -0.0366037 -0.0326659 -0.028173 -0.023323 -0.0183112 -0.0133201 -0.00851097 -0.00401837 5.37237e-05 0.00363288 0.00667731 0.00917287 0.0111297 0.0125776 0.0135606 0.0141324 0.0143521 0.0142803 0.0139758 0.0134937 0.0128833 0.0121874 0.0114422 0.0106769 0.00991456 0.00917226 0.00846239 0.00779312 0.00716932 0.00659301 0.00606435 0.00558212 0.00514398 0.00474703 0.0043881 0.0040639 0.00377112 0.00350655 0.00326729 0.00305063 0.00285407 0.00267537 0.00251251 0.00236369 0.00222752 0.00210271 0.0019879 0.00188196 0.00178404 0.00169335 0.00160915 0.00153085 0.0014579 0.00138977 0.00132607 0.00126641 0.00121042 0.00115783 0.00110839 0.00106177 0.0010177 0.000976102 0.000936791 0.000899602 0.000864268 0.000830664 0.000798743 0.000768428 0.000739557 0.000712051 0.000685882 0.000661009 0.000637226 0.000614392 0.000592609 0.000571754 0.000551846 0.00053281 0.000514505 0.000496951 0.000480152 0.00046403 0.000448558 0.000433694 0.000419398 0.000405668 0.000392471 0.000379756 0.000367513 0.000355813 0.000344581 0.00033368 0.000323124 0.000312977 0.000303172 0.000293721 0.000284707 0.000276104 0.000267738 0.000259627 0.000251821 0.000244263 0.000236964 0.000229998 0.00022334 0.000216769 0.000210445 0.000204329 0.000198477 0.00019283 0.000187417 0.00018218 0.000177099 0.00017216 0.000167441 0.000162857 0.000158437 0.000154166 0.000150062 0.00014607 0.000142169 0.000138396 0.000134813 0.000131379 0.000127996 0.000124747 0.000121613 0.000118581 0.000115662 0.000112914 0.000110323 0.000107808 0.000105307 0.000102917 0.000100611 9.83698e-05 9.61768e-05 9.41038e-05 9.21293e-05 9.01968e-05 8.8331e-05 8.65741e-05 8.4929e-05 8.32644e-05 8.16571e-05 8.0043e-05 7.85024e-05 7.71026e-05 7.58046e-05 7.45509e-05 7.33459e-05 7.22182e-05 7.10732e-05 6.99972e-05 6.9001e-05 6.80483e-05 6.71472e-05 6.62759e-05 6.54947e-05 6.47819e-05 6.40857e-05 6.34366e-05 6.28445e-05 6.23435e-05 6.18782e-05 6.13956e-05 6.09483e-05 6.05605e-05 6.02097e-05 5.99208e-05 5.97179e-05 5.95475e-05 5.94181e-05 5.93573e-05 5.92941e-05 5.92438e-05 5.92941e-05 5.93573e-05 5.94181e-05 5.95475e-05 5.97179e-05 5.99208e-05 6.02097e-05 6.05605e-05 6.09483e-05 6.13956e-05 6.18782e-05 6.23435e-05 6.28445e-05 6.34366e-05 6.40857e-05 6.47819e-05 6.54947e-05 6.62759e-05 6.71472e-05 6.80483e-05 6.9001e-05 6.99972e-05 7.10732e-05 7.22182e-05 7.33459e-05 7.45509e-05 7.58046e-05 7.71026e-05 7.85024e-05 8.0043e-05 8.16571e-05 8.32644e-05 8.4929e-05 8.65741e-05 8.8331e-05 9.01968e-05 9.21293e-05 9.41038e-05 9.61768e-05 9.83698e-05 0.000100611 0.000102917 0.000105307 0.000107808 0.000110323 0.000112914 0.000115662 0.000118581 0.000121613 0.000124747 0.000127996 0.000131379 0.000134813 0.000138396 0.000142169 0.00014607 0.000150062 0.000154166 0.000158437 0.000162857 0.000167441 0.00017216 0.000177099 0.00018218 0.000187417 0.00019283 0.000198477 0.000204329 0.000210445 0.000216769 0.00022334 0.000229998 0.000236964 0.000244263 0.000251821 0.000259627 0.000267738 0.000276104 0.000284707 0.000293721 0.000303172 0.000312977 0.000323124 0.00033368 0.000344581 0.000355813 0.000367513 0.000379756 0.000392471 0.000405668 0.000419398 0.000433694 0.000448558 0.00046403 0.000480152 0.000496951 0.000514505 0.00053281 0.000551846 0.000571754 0.000592609 0.000614392 0.000637226 0.000661009 0.000685882 0.000712051 0.000739557 0.000768428 0.000798743 0.000830664 0.000864268 0.000899602 0.000936791 0.000976102 0.0010177 0.00106177 0.00110839 0.00115783 0.00121042 0.00126641 0.00132607 0.00138977 0.0014579 0.00153085 0.00160915 0.00169335 0.00178404 0.00188196 0.0019879 0.00210271 0.00222752 0.00236369 0.00251251 0.00267537 0.00285407 0.00305063 0.00326729 0.00350655 0.00377112 0.0040639 0.0043881 0.00474703 0.00514398 0.00558212 0.00606435 0.00659301 0.00716932 0.00779312 0.00846239 0.00917226 0.00991456 0.0106769 0.0114422 0.0121874 0.0128833 0.0134937 0.0139758 0.0142803 0.0143521 0.0141324 0.0135606 0.0125776 0.0111297 0.00917287 0.00667731 0.00363288 5.37237e-05 -0.00401837 -0.00851097 -0.0133201 -0.0183112 -0.023323 -0.028173 -0.0326659 -0.0366037 -0.039797 -0.0420776 -0.04331 -0.043402 -0.0423126 -0.0400567 -0.0367073 -0.0323913 -0.0272835 -0.0215963 -0.0155668 -0.00944164 -0.00346267 0.00214766 0.00719872 0.0115411 0.0150726 0.0177406 0.0195406 0.0205111 0.0207273 0.0202912 0.0193226 0.0179489 0.0162965 0.0144834 0.0126136 0.0107734 0.00902981 0.00743045 0.00600491 0.00476715 0.00371828 0.0028497 0.0021461 0.00158814 0.00115475 0.000824879 0.000578775 0.000398784 0.000269745 0.000179075 0.000116648 7.45415e-05 4.67165e-05 2.86944e-05 1.72437e-05 1.00994e-05 5.72062e-06 3.08872e-06 1.54674e-06 6.77759e-07 2.18575e-07 2.28781e-09 -7.74392e-08 -8.76904e-08 -6.90874e-08 -4.41118e-08 -2.3183e-08 -9.3826e-09 -2.02061e-09 9.44031e-10 1.5292e-09 1.16484e-09 6.34052e-10 2.44555e-10 4.16629e-11 -2.98932e-11 -3.65449e-11 -2.28785e-11 -9.55816e-12 -2.04771e-12 6.92963e-13 1.02353e-12 6.20051e-13 2.31947e-13 3.26141e-14 -2.70698e-14 -2.62373e-14 -1.26549e-14 -3.28949e-15 3.37351e-16 8.78108e-16 5.08764e-16 1.59241e-16 5.06653e-18 -2.63268e-17 -1.70923e-17 -5.62447e-18 -3.40633e-19 7.74396e-19 5.05627e-19 1.58024e-19 5.17803e-21 -2.28296e-20 -1.32743e-20 -3.53417e-21 1.88796e-22 6.38241e-22 3.00304e-22 5.76606e-23 -1.50361e-23 -1.5669e-23 -5.47495e-24 -4.55112e-25 5.19524e-25 2.96923e-25 6.74333e-26 -6.80421e-27 -1.09192e-26 -3.79741e-27 -3.4626e-28 2.66455e-28 1.3918e-28 2.65055e-29 -3.37289e-30 -3.60835e-30 -9.65084e-31 -2.6904e-32 7.02262e-32 2.63544e-32 5.67466e-33 0 0 
0 0 5.48096e-33 2.99603e-32 8.76894e-32 2.65225e-32 -9.93397e-31 -4.43824e-30 -6.22946e-30 2.56957e-29 1.69751e-28 3.92347e-28 -1.98832e-28 -4.5423e-27 -1.51451e-26 -1.53019e-26 7.49274e-26 3.98416e-25 8.19312e-25 -2.19372e-25 -7.0093e-24 -2.28251e-23 -2.84626e-23 6.30238e-23 4.13082e-22 9.86269e-22 6.15622e-22 -4.3723e-21 -1.88905e-20 -3.65102e-20 -5.75095e-21 2.06096e-19 7.35462e-19 1.26245e-18 -5.46722e-20 -7.51066e-18 -2.51055e-17 -4.26846e-17 -5.46026e-18 2.13315e-16 7.47157e-16 1.39255e-15 8.237e-16 -4.28637e-15 -1.8424e-14 -4.05844e-14 -4.70064e-14 3.42988e-14 3.30202e-13 9.37829e-13 1.63492e-12 1.31793e-12 -2.61395e-12 -1.4043e-11 -3.52364e-11 -5.88564e-11 -5.39056e-11 4.95973e-11 3.607e-10 9.80063e-10 1.86168e-09 2.55174e-09 1.82783e-09 -2.624e-09 -1.41954e-08 -3.65446e-08 -7.14466e-08 -1.14824e-07 -1.5066e-07 -1.42628e-07 -2.29813e-08 3.22823e-07 1.07944e-06 2.53971e-06 5.16755e-06 9.69856e-06 1.72923e-05 2.97485e-05 4.9798e-05 8.14743e-05 0.000130567 0.000205157 0.000316217 0.00047826 0.000709972 0.00103476 0.00148108 0.0020824 0.00287663 0.00390481 0.00520896 0.00682892 0.00879822 0.0111391 0.0138566 0.0169328 0.0203209 0.02394 0.0276722 0.0313609 0.0348138 0.0378076 0.0400985 0.0414343 0.0415714 0.0402925 0.0374261 0.0328646 0.0265795 0.0186331 0.00918365 -0.00151595 -0.0131265 -0.0252382 -0.0373919 -0.0491057 -0.0599034 -0.0693426 -0.0770426 -0.0827055 -0.0861336 -0.0872381 -0.0860413 -0.08267 -0.0773437 -0.0703563 -0.0620553 -0.0528185 -0.0430314 -0.0330657 -0.0232617 -0.0139146 -0.00526481 0.0025072 0.00928086 0.0149929 0.0196314 0.0232281 0.0258489 0.0275847 0.028543 0.0288392 0.0285902 0.0279083 0.026898 0.0256523 0.0242517 0.0227639 0.0212436 0.0197336 0.0182661 0.0168642 0.0155428 0.0143107 0.0131719 0.0121264 0.0111718 0.0103035 0.00951611 0.0088033 0.00815867 0.00757566 0.00704839 0.00657106 0.00613831 0.0057454 0.00538788 0.00506183 0.00476391 0.00449107 0.00424055 0.00400995 0.00379724 0.00360055 0.0034182 0.00324892 0.00309141 0.00294459 0.00280748 0.00267922 0.00255904 0.00244623 0.00234015 0.00224028 0.00214616 0.00205732 0.00197332 0.00189387 0.00181862 0.00174719 0.00167938 0.00161496 0.00155368 0.00149528 0.00143969 0.00138673 0.00133622 0.00128793 0.00124177 0.00119762 0.00115541 0.00111507 0.00107646 0.00103947 0.00100404 0.000969996 0.000937322 0.000905944 0.000875785 0.000846794 0.000818957 0.000792177 0.000766463 0.000741786 0.000718002 0.000695082 0.000672962 0.000651679 0.000631179 0.000611413 0.000592401 0.000574137 0.000556542 0.000539508 0.000523025 0.000507152 0.000491848 0.000477117 0.000462965 0.000449268 0.000436037 0.000423309 0.000411025 0.000399241 0.000387817 0.000376796 0.000366156 0.000355831 0.000345788 0.000336113 0.000326812 0.000317878 0.00030922 0.000300853 0.000292796 0.000285002 0.000277507 0.00027031 0.000263371 0.000256569 0.000249969 0.000243653 0.000237547 0.000231691 0.000226127 0.000220744 0.000215512 0.000210437 0.000205573 0.00020089 0.000196325 0.000191952 0.000187755 0.000183796 0.000179951 0.000176147 0.000172533 0.000169042 0.000165697 0.000162472 0.000159364 0.00015642 0.000153593 0.000150891 0.000148343 0.000145848 0.000143538 0.000141357 0.000139291 0.000137297 0.000135388 0.000133609 0.0001319 0.000130271 0.000128793 0.000127391 0.000126128 0.00012498 0.000123919 0.000122925 0.000121989 0.000121151 0.000120394 0.000119717 0.000119125 0.0001187 0.000118285 0.000117973 0.000117765 0.000117655 0.000117622 0.000117655 0.000117765 0.000117973 0.000118285 0.0001187 0.000119125 0.000119717 0.000120394 0.000121151 0.000121989 0.000122925 0.000123919 0.00012498 0.000126128 0.000127391 0.000128793 0.000130271 0.0001319 0.000133609 0.000135388 0.000137297 0.000139291 0.000141357 0.000143538 0.000145848 0.000148343 0.000150891 0.000153593 0.00015642 0.000159364 0.000162472 0.000165697 0.000169042 0.000172533 0.000176147 0.000179951 0.000183796 0.000187755 0.000191952 0.000196325 0.00020089 0.000205573 0.000210437 0.000215512 0.000220744 0.000226127 0.000231691 0.000237547 0.000243653 0.000249969 0.000256569 0.000263371 0.00027031 0.000277507 0.000285002 0.000292796 0.000300853 0.00030922 0.000317878 0.000326812 0.000336113 0.000345788 0.000355831 0.000366156 0.000376796 0.000387817 0.000399241 0.000411025 0.000423309 0.000436037 0.000449268 0.000462965 0.000477117 0.000491848 0.000507152 0.000523025 0.000539508 0.000556542 0.000574137 0.000592401 0.000611413 0.000631179 0.000651679 0.000672962 0.000695082 0.000718002 0.000741786 0.000766463 0.000792177 0.000818957 0.000846794 0.000875785 0.000905944 0.000937322 0.000969996 0.00100404 0.00103947 0.00107646 0.00111507 0.00115541 0.00119762 0.00124177 0.00128793 0.00133622 0.00138673 0.00143969 0.00149528 0.00155368 0.00161496 0.00167938 0.00174719 0.00181862 0.00189387 0.00197332 0.00205732 0.00214616 0.00224028 0.00234015 0.00244623 0.00255904 0.00267922 0.00280748 0.00294459 0.00309141 0.00324892 0.0034182 0.00360055 0.00379724 0.00400995 0.00424055 0.00449107 0.00476391 0.00506183 0.00538788 0.0057454 0.00613831 0.00657106 0.00704839 0.00757566 0.00815867 0.0088033 0.00951611 0.0103035 0.0111718 0.0121264 0.0131719 0.0143107 0.0155428 0.0168642 0.0182661 0.0197336 0.0212436 0.0227639 0.0242517 0.0256523 0.026898 0.0279083 0.0285902 0.0288392 0.028543 0.0275847 0.0258489 0.0232281 0.0196314 0.0149929 0.00928086 0.0025072 -0.00526481 -0.0139146 -0.0232617 -0.0330657 -0.0430314 -0.0528185 -0.0620553 -0.0703563 -0.0773437 -0.08267 -0.0860413 -0.0872381 -0.0861336 -0.0827055 -0.0770426 -0.0693426 -0.0599034 -0.0491057 -0.0373919 -0.0252382 -0.0131265 -0.00151595 0.00918365 0.0186331 0.0265795 0.0328646 0.0374261 0.0402925 0.0415714 0.0414343 0.0400985 0.0378076 0.0348138 0.0313609 0.0276722 0.02394 0.0203209 0.0169328 0.0138566 0.0111391 0.00879822 0.00682892 0.00520896 0.00390481 0.00287663 0.0020824 0.00148108 0.00103476 0.000709972 0.00047826 0.000316217 0.000205157 0.000130567 8.14743e-05 4.9798e-05 2.97485e-05 1.72923e-05 9.69856e-06 5.16755e-06 2.53971e-06 1.07944e-06 3.22823e-07 -2.29813e-08 -1.42628e-07 -1.5066e-07 -1.14824e-07 -7.14466e-08 -3.65446e-08 -1.41954e-08 -2.624e-09 1.82783e-09 2.55174e-09 1.86168e-09 9.80063e-10 3.607e-10 4.95973e-11 -5.39056e-11 -5.88564e-11 -3.52364e-11 -1.4043e-11 -2.61395e-12 1.31793e-12 1.63492e-12 9.37829e-13 3.30202e-13 3.42988e-14 -4.70064e-14 -4.05844e-14 -1.8424e-14 -4.28637e-15 8.23698e-16 1.39255e-15 7.47157e-16 2.13315e-16 -5.46034e-18 -4.26847e-17 -2.51056e-17 -7.51066e-18 -5.46714e-20 1.26245e-18 7.35463e-19 2.06097e-19 -5.7518e-21 -3.65126e-20 -1.88927e-20 -4.36519e-21 6.12691e-22 9.83331e-22 4.11911e-22 6.28552e-23 -2.83801e-23 -2.27614e-23 -6.99015e-24 -2.18851e-25 8.17072e-25 3.97342e-25 7.47277e-26 -1.52608e-26 -1.51049e-26 -4.53034e-27 -1.98312e-28 3.91322e-28 1.6931e-28 2.56289e-29 -6.21341e-30 -4.42575e-30 -9.87024e-31 2.88197e-32 5.90477e-32 2.68909e-32 0 0 
0 0 2.44301e-32 8.76894e-32 1.78613e-31 -4.9069e-31 -4.25396e-30 -1.13783e-29 4.08916e-30 1.4437e-28 5.22205e-28 5.27679e-28 -3.16488e-27 -1.69341e-26 -3.38871e-26 2.52741e-26 3.80797e-25 1.15895e-24 1.07955e-24 -5.17626e-24 -2.62313e-23 -5.31249e-23 4.29317e-24 3.86204e-22 1.29175e-21 1.81117e-21 -2.36783e-21 -1.98431e-20 -5.22828e-20 -5.22952e-20 1.47685e-19 8.21111e-19 1.89144e-18 1.52868e-18 -5.8775e-18 -2.863e-17 -6.33432e-17 -5.42457e-17 1.63637e-16 8.4093e-16 1.95648e-15 2.19046e-15 -2.64145e-15 -1.9765e-14 -5.28543e-14 -8.04642e-14 -1.71287e-14 3.16177e-13 1.12177e-12 2.28724e-12 2.62161e-12 -1.18082e-12 -1.48257e-11 -4.34853e-11 -8.19353e-11 -9.51414e-11 6.41966e-12 3.76602e-10 1.18495e-09 2.44574e-09 3.66843e-09 3.34207e-09 -1.5777e-09 -1.57766e-08 -4.46396e-08 -9.14823e-08 -1.52279e-07 -2.07535e-07 -2.11252e-07 -7.67389e-08 3.42387e-07 1.28061e-06 3.1074e-06 6.40646e-06 1.21051e-05 2.16728e-05 3.74049e-05 6.28049e-05 0.000103071 0.000165685 0.000261111 0.000403566 0.000611859 0.000910205 0.00132892 0.00190483 0.00268114 0.00370664 0.00503385 0.00671602 0.00880288 0.011335 0.0143373 0.0178109 0.0217261 0.0260142 0.0305615 0.0352058 0.0397354 0.0438933 0.0473857 0.0498956 0.0511015 0.0506996 0.0484279 0.0440916 0.0375863 0.0289167 0.0182085 0.00571352 -0.00819614 -0.023043 -0.0382679 -0.0532614 -0.0674005 -0.080087 -0.0907846 -0.0990525 -0.104572 -0.107162 -0.106788 -0.103561 -0.0977185 -0.0896089 -0.0796625 -0.0683607 -0.0562063 -0.0436923 -0.0312781 -0.0193661 -0.00829002 0.00169596 0.0104181 0.0177804 0.0237574 0.0283839 0.0317428 0.0339527 0.0351542 0.0355001 0.0351448 0.0342378 0.0329167 0.0313041 0.0295051 0.0276073 0.0256808 0.0237796 0.0219433 0.0201997 0.0185662 0.0170522 0.0156606 0.0143897 0.013235 0.0121898 0.0112457 0.0103941 0.00962668 0.00893486 0.00831045 0.00774602 0.00723521 0.00677184 0.00635051 0.00596651 0.00561567 0.00529421 0.00499917 0.0047276 0.00447682 0.00424492 0.00403007 0.00383029 0.00364416 0.00347064 0.00330844 0.0031566 0.0030144 0.00288086 0.00275534 0.00263709 0.00252552 0.00242013 0.0023205 0.00222629 0.0021369 0.00205215 0.00197162 0.00189512 0.0018224 0.00175322 0.00168721 0.00162411 0.00156395 0.00150653 0.00145171 0.00139921 0.00134907 0.001301 0.00125508 0.00121109 0.00116886 0.00112853 0.0010898 0.00105244 0.0010166 0.000982128 0.00094908 0.000917327 0.000886782 0.00085734 0.000829174 0.000802144 0.000775906 0.000750556 0.00072618 0.000702799 0.000680219 0.00065857 0.000637813 0.000617592 0.000597905 0.000579067 0.000560937 0.000543458 0.000526645 0.000510441 0.000494858 0.00047961 0.000465153 0.000451175 0.00043776 0.000424819 0.000412242 0.000399996 0.000388196 0.000376746 0.00036572 0.000354971 0.000344656 0.000334784 0.000325221 0.000315923 0.000307044 0.000298479 0.000290307 0.000282448 0.00027485 0.000267421 0.00026014 0.000253144 0.000246453 0.000240109 0.000234028 0.000228049 0.000222179 0.000216663 0.00021134 0.000206167 0.00020106 0.000196305 0.000191791 0.000187514 0.000183382 0.000179237 0.000175197 0.000171261 0.000167612 0.000163978 0.000160635 0.000157522 0.000154362 0.000151379 0.000148631 0.000145867 0.000143196 0.000140882 0.000138651 0.000136388 0.000134274 0.000132342 0.000130508 0.000128725 0.00012705 0.000125568 0.000124258 0.00012306 0.000121909 0.000120833 0.000119892 0.000119056 0.000118202 0.000117431 0.000116734 0.000116222 0.000115746 0.000115396 0.000115003 0.000114843 0.000114863 0.000114843 0.000115003 0.000115396 0.000115746 0.000116222 0.000116734 0.000117431 0.000118202 0.000119056 0.000119892 0.000120833 0.000121909 0.00012306 0.000124258 0.000125568 0.00012705 0.000128725 0.000130508 0.000132342 0.000134274 0.000136388 0.000138651 0.000140882 0.000143196 0.000145867 0.000148631 0.000151379 0.000154362 0.000157522 0.000160635 0.000163978 0.000167612 0.000171261 0.000175197 0.000179237 0.000183382 0.000187514 0.000191791 0.000196305 0.00020106 0.000206167 0.00021134 0.000216663 0.000222179 0.000228049 0.000234028 0.000240109 0.000246453 0.000253144 0.00026014 0.000267421 0.00027485 0.000282448 0.000290307 0.000298479 0.000307044 0.000315923 0.000325221 0.000334784 0.000344656 0.000354971 0.00036572 0.000376746 0.000388196 0.000399996 0.000412242 0.000424819 0.00043776 0.000451175 0.000465153 0.00047961 0.000494858 0.000510441 0.000526645 0.000543458 0.000560937 0.000579067 0.000597905 0.000617592 0.000637813 0.00065857 0.000680219 0.000702799 0.00072618 0.000750556 0.000775906 0.000802144 0.000829174 0.00085734 0.000886782 0.000917327 0.00094908 0.000982128 0.0010166 0.00105244 0.0010898 0.00112853 0.00116886 0.00121109 0.00125508 0.001301 0.00134907 0.00139921 0.00145171 0.00150653 0.00156395 0.00162411 0.00168721 0.00175322 0.0018224 0.00189512 0.00197162 0.00205215 0.0021369 0.00222629 0.0023205 0.00242013 0.00252552 0.00263709 0.00275534 0.00288086 0.0030144 0.0031566 0.00330844 0.00347064 0.00364416 0.00383029 0.00403007 0.00424492 0.00447682 0.0047276 0.00499917 0.00529421 0.00561567 0.00596651 0.00635051 0.00677184 0.00723521 0.00774602 0.00831045 0.00893486 0.00962668 0.0103941 0.0112457 0.0121898 0.013235 0.0143897 0.0156606 0.0170522 0.0185662 0.0201997 0.0219433 0.0237796 0.0256808 0.0276073 0.0295051 0.0313041 0.0329167 0.0342378 0.0351448 0.0355001 0.0351542 0.0339527 0.0317428 0.0283839 0.0237574 0.0177804 0.0104181 0.00169596 -0.00829002 -0.0193661 -0.0312781 -0.0436923 -0.0562063 -0.0683607 -0.0796625 -0.0896089 -0.0977185 -0.103561 -0.106788 -0.107162 -0.104572 -0.0990525 -0.0907846 -0.080087 -0.0674005 -0.0532614 -0.0382679 -0.023043 -0.00819614 0.00571352 0.0182085 0.0289167 0.0375863 0.0440916 0.0484279 0.0506996 0.0511015 0.0498956 0.0473857 0.0438933 0.0397354 0.0352058 0.0305615 0.0260142 0.0217261 0.0178109 0.0143373 0.011335 0.00880288 0.00671602 0.00503385 0.00370664 0.00268114 0.00190483 0.00132892 0.000910205 0.000611859 0.000403566 0.000261111 0.000165685 0.000103071 6.28049e-05 3.74049e-05 2.16728e-05 1.21051e-05 6.40646e-06 3.1074e-06 1.28061e-06 3.42387e-07 -7.67389e-08 -2.11252e-07 -2.07535e-07 -1.52279e-07 -9.14823e-08 -4.46396e-08 -1.57766e-08 -1.5777e-09 3.34207e-09 3.66843e-09 2.44574e-09 1.18495e-09 3.76602e-10 6.41966e-12 -9.51414e-11 -8.19353e-11 -4.34853e-11 -1.48257e-11 -1.18082e-12 2.6216e-12 2.28723e-12 1.12177e-12 3.16178e-13 -1.71287e-14 -8.04642e-14 -5.28544e-14 -1.9765e-14 -2.64145e-15 2.19046e-15 1.95648e-15 8.4093e-16 1.63637e-16 -5.42458e-17 -6.33432e-17 -2.863e-17 -5.87749e-18 1.52868e-18 1.89144e-18 8.21111e-19 1.47682e-19 -5.22998e-20 -5.22795e-20 -1.98047e-20 -2.36346e-21 1.80555e-21 1.28804e-21 3.85131e-22 4.29097e-24 -5.29751e-23 -2.6159e-23 -5.1623e-24 1.07655e-24 1.15581e-24 3.79778e-25 2.52079e-26 -3.37971e-26 -1.68895e-26 -3.15658e-27 5.263e-28 5.20846e-28 1.43995e-28 4.07911e-30 -1.13448e-29 -4.23492e-30 -5.06886e-31 2.88677e-32 7.15812e-32 0 0 