<?xml version="1.0"?>
<VTKFile type="ImageData" version="0.1" byte_order="LittleEndian">
<ImageData WholeExtent="0 599 0 599 0 0" Origin="0 0 0" Spacing="5 5 0">
<Piece Extent="0 599 0 599 0 0">
<PointData Scalars="Amplitude">
<DataArray type="Float32" Name="Amplitude" format="ascii">
0 0 0 0 0 0 0 0 0 0 0 0 0 0 0 0 0 0 0 0 0 0 0 0 0 0 0 0 0 0 0 0 0 0 0 0 0 0 0 0 0 0 0 0 0 0 0 0 0 0 0 0 0 0 0 0 0 0 0 0 0 0 0 0 0 0 0 0 0 0 0 0 0 0 0 0 0 0 0 0 0 0 0 0 0 0 0 0 0 0 0 0 0 0 0 0 0 0 0 0 0 0 0 0 0 0 0 0 0 0 0 0 0 0 0 0 0 0 0 0 0 0 0 0 0 0 0 0 0 0 0 0 0 0 0 0 0 0 0 0 0 0 0 0 0 0 0 0 0 0 0 0 0 0 0 0 0 0 0 0 0 0 0 0 0 0 0 0 0 0 0 0 0 0 0 0 0 0 0 0 0 0 0 0 0 0 0 0 0 0 0 0 0 0 0 0 0 0 0 0 0 0 0 0 0 0 0 0 0 0 0 0 0 0 0 0 0 0 0 0 0 0 0 0 0 0 0 0 0 0 0 0 0 0 0 0 0 0 0 0 0 0 0 0 0 0 0 0 0 0 0 0 0 0 0 0 0 0 0 0 0 0 0 0 0 0 0 0 0 0 0 0 0 0 0 0 0 0 0 0 0 0 0 0 0 0 0 0 0 0 0 0 0 0 0 0 0 0 0 0 0 0 0 0 0 0 0 0 0 0 0 0 0 0 0 0 0 0 0 0 0 0 0 0 0 0 0 0 0 0 0 0 0 0 0 0 0 0 0 0 0 0 0 0 0 0 0 0 0 0 0 0 0 0 0 0 0 0 0 0 0 0 0 0 0 0 0 0 0 0 0 0 0 0 0 0 0 0 0 0 0 0 0 0 0 0 0 0 0 0 0 0 0 0 0 0 0 0 0 0 0 0 0 0 0 0 0 0 0 0 0 0 0 0 0 0 0 0 0 0 0 0 0 0 0 0 0 0 0 0 0 0 0 0 0 0 0 0 0 0 0 0 0 0 0 0 0 0 0 0 0 0 0 0 0 0 0 0 0 0 0 0 0 0 0 0 0 0 0 0 0 0 0 0 0 0 0 0 0 0 0 0 0 0 0 0 0 0 0 0 0 0 0 0 0 0 0 0 0 0 0 0 0 0 0 0 0 0 0 0 0 0 0 0 0 0 0 0 0 0 0 0 0 0 0 0 0 0 0 0 0 0 0 0 0 0 0 0 0 0 0 0 0 0 0 0 0 0 0 0 0 0 0 0 0 0 0 0 0 0 0 0 0 0 0 0 0 0 0 0 0 0 0 0 0 0 0 0 0 0 0 0 0 0 0 0 0 0 0 0 0 0 0 0 0 0 0 0 0 0 
0 0 0 0 0 0 0 0 0 0 0 0 0 0 0 0 0 0 0 0 0 0 0 0 0 0 0 0 0 0 0 0 0 0 0 0 0 0 0 0 0 0 0 0 0 0 0 0 0 0 0 0 0 0 0 0 0 0 0 0 0 0 0 0 0 0 0 0 0 0 0 0 0 0 0 0 0 0 0 0 0 0 0 0 0 0 0 0 0 0 0 0 0 0 0 0 0 0 0 0 0 0 0 0 0 0 0 0 0 0 0 0 0 0 0 0 0 0 0 0 0 0 0 0 0 0 0 0 0 0 0 0 0 0 0 0 0 0 0 0 0 0 0 0 0 0 0 0 0 0 0 0 0 0 0 0 0 0 0 0 0 0 0 0 0 0 0 0 0 0 0 0 0 0 0 0 0 0 0 0 0 0 0 0 0 0 0 0 0 0 0 0 0 0 0 0 0 0 0 0 0 0 0 0 0 0 0 0 0 0 0 0 0 0 0 0 0 0 0 0 0 0 0 0 0 0 0 0 0 0 0 0 0 0 0 0 0 0 0 0 0 0 0 0 0 0 0 0 0 0 0 0 0 0 0 0 0 0 0 0 0 0 0 0 0 0 0 0 0 0 0 0 0 0 0 0 0 0 0 0 0 0 0 0 0 0 0 0 0 0 0 0 0 0 0 0 0 0 0 0 0 0 0 0 0 0 0 0 0 0 0 0 0 0 0 0 0 0 0 0 0 0 0 0 0 0 0 0 0 0 0 0 0 0 0 0 0 0 0 0 0 0 0 0 0 0 0 0 0 0 0 0 0 0 0 0 0 0 0 0 0 0 0 0 0 0 0 0 0 0 0 0 0 0 0 0 0 0 0 0 0 0 0 0 0 0 0 0 0 0 0 0 0 0 0 0 0 0 0 0 0 0 0 0 0 0 0 0 0 0 0 0 0 0 0 0 0 0 0 0 0 0 0 0 0 0 0 0 0 0 0 0 0 0 0 0 0 0 0 0 0 0 0 0 0 0 0 0 0 0 0 0 0 0 0 0 0 0 0 0 0 0 0 0 0 0 0 0 0 0 0 0 0 0 0 0 0 0 0 0 0 0 0 0 0 0 0 0 0 0 0 0 0 0 0 0 0 0 0 0 0 0 0 0 0 0 0 0 0 0 0 0 0 0 0 0 0 0 0 0 0 0 0 0 0 0 0 0 0 0 0 0 0 0 0 0 0 0 0 0 0 0 0 0 0 0 0 0 0 0 0 0 0 0 0 0 0 0 0 0 0 0 0 0 0 0 0 0 0 0 0 0 0 0 0 0 0 0 0 0 0 0 0 0 0 0 0 0 0 0 0 0 0 0 0 0 0 0 0 0 
0 0 8.02651e-24 3.4946e-23 9.33919e-23 4.32623e-23 -7.72705e-22 -3.63443e-21 -7.42414e-21 3.38626e-21 7.79369e-20 2.74485e-19 4.31385e-19 -4.56554e-19 -4.82568e-18 -1.44822e-17 -2.00408e-17 2.1671e-17 2.00723e-16 5.71059e-16 8.13043e-16 -4.13739e-16 -5.82957e-15 -1.75131e-14 -2.88351e-14 -8.45598e-15 1.13571e-13 4.18833e-13 8.55346e-13 8.98584e-13 -9.01955e-13 -6.96245e-12 -1.90158e-11 -3.29236e-11 -2.89961e-11 3.86958e-11 2.40938e-10 6.33721e-10 1.14604e-09 1.37508e-09 3.2643e-10 -3.75123e-09 -1.31405e-08 -2.96231e-08 -5.2216e-08 -7.34016e-08 -7.37868e-08 -1.51223e-08 1.69053e-07 5.87551e-07 1.41556e-06 2.93665e-06 5.61321e-06 1.01961e-05 1.78823e-05 3.05267e-05 5.09103e-05 8.3064e-05 0.000132646 0.000207362 0.000317399 0.00047582 0.000698838 0.00100583 0.00141898 0.00196236 0.00266037 0.00353546 0.00460515 0.00587832 0.00735115 0.00900294 0.0107922 0.0126539 0.014498 0.0162109 0.0176588 0.0186947 0.0191676 0.0189348 0.0178755 0.0159037 0.0129817 0.00912939 0.00443036 -0.000967898 -0.00685914 -0.0129895 -0.0190735 -0.0248139 -0.0299236 -0.0341463 -0.0372758 -0.0391707 -0.0397638 -0.0390644 -0.037155 -0.0341813 -0.0303384 -0.025854 -0.0209703 -0.0159268 -0.0109448 -0.00621544 -0.00189197 0.00191548 0.00513929 0.00775179 0.00976009 0.0111993 0.0121246 0.0126041 0.0127123 0.0125246 0.0121124 0.0115404 0.0108643 0.0101304 0.00937552 0.00862764 0.00790659 0.00722565 0.00659288 0.00601215 0.00548429 0.00500762 0.00457931 0.00419564 0.00385251 0.00354582 0.00327153 0.00302596 0.00280569 0.00260748 0.00242861 0.00226658 0.00211937 0.00198529 0.00186275 0.00175043 0.00164729 0.00155234 0.00146474 0.00138355 0.00130807 0.00123777 0.00117213 0.00111086 0.00105349 0.000999747 0.000949352 0.000902029 0.000857477 0.000815464 0.000775791 0.000738256 0.000702708 0.000669132 0.000637303 0.000607051 0.000578308 0.000551017 0.000525183 0.000500539 0.000477129 0.000454915 0.000433747 0.000413558 0.000394262 0.000375873 0.000358384 0.000341668 0.000325686 0.000310373 0.000295765 0.000281822 0.000268468 0.000255715 0.000243571 0.000232018 0.000220955 0.000210348 0.000200182 0.00019043 0.000181171 0.000172371 0.0001639 0.000155734 0.000147791 0.000140118 0.000132797 0.000125885 0.000119351 0.000113095 0.000107027 0.00010114 9.55186e-05 9.01714e-05 8.50933e-05 8.02826e-05 7.5687e-05 7.12823e-05 6.69836e-05 6.28435e-05 5.88856e-05 5.50339e-05 5.13987e-05 4.79667e-05 4.46338e-05 4.14322e-05 3.83291e-05 3.52762e-05 3.23436e-05 2.9539e-05 2.6939e-05 2.45132e-05 2.21302e-05 1.98711e-05 1.76899e-05 1.55198e-05 1.34716e-05 1.14979e-05 9.63521e-06 7.83187e-06 6.10576e-06 4.45603e-06 2.85852e-06 1.33921e-06 -1.77368e-07 -1.68481e-06 -3.12249e-06 -4.51041e-06 -5.87562e-06 -7.1758e-06 -8.41589e-06 -9.60467e-06 -1.07479e-05 -1.18236e-05 -1.28322e-05 -1.37997e-05 -1.47304e-05 -1.55561e-05 -1.63498e-05 -1.71349e-05 -1.79243e-05 -1.86977e-05 -1.94087e-05 -2.01315e-05 -2.08432e-05 -2.15263e-05 -2.21477e-05 -2.27489e-05 -2.33687e-05 -2.39942e-05 -2.45313e-05 -2.51043e-05 -2.56976e-05 -2.61915e-05 -2.66392e-05 -2.71115e-05 -2.75889e-05 -2.79936e-05 -2.83596e-05 -2.87249e-05 -2.91343e-05 -2.95057e-05 -2.98199e-05 -3.00836e-05 -3.03636e-05 -3.06289e-05 -3.09206e-05 -3.12221e-05 -3.15613e-05 -3.18852e-05 -3.21684e-05 -3.23734e-05 -3.257e-05 -3.27061e-05 -3.28214e-05 -3.29182e-05 -3.3062e-05 -3.32345e-05 -3.34207e-05 -3.35671e-05 -3.36898e-05 -3.38064e-05 -3.39212e-05 -3.4026e-05 -3.41386e-05 -3.42619e-05 -3.43685e-05 -3.44718e-05 -3.45155e-05 -3.45391e-05 -3.46417e-05 -3.47075e-05 -3.47191e-05 -3.47239e-05 -3.46686e-05 -3.45756e-05 -3.44949e-05 -3.45756e-05 -3.46686e-05 -3.47239e-05 -3.47191e-05 -3.47075e-05 -3.46417e-05 -3.45391e-05 -3.45155e-05 -3.44718e-05 -3.43685e-05 -3.42619e-05 -3.41386e-05 -3.4026e-05 -3.39212e-05 -3.38064e-05 -3.36898e-05 -3.35671e-05 -3.34207e-05 -3.32345e-05 -3.3062e-05 -3.29182e-05 -3.28214e-05 -3.27061e-05 -3.257e-05 -3.23734e-05 -3.21684e-05 -3.18852e-05 -3.15613e-05 -3.12221e-05 -3.09206e-05 -3.06289e-05 -3.03636e-05 -3.00836e-05 -2.98199e-05 -2.95057e-05 -2.91343e-05 -2.87249e-05 -2.83596e-05 -2.79936e-05 -2.75889e-05 -2.71115e-05 -2.66392e-05 -2.61915e-05 -2.56976e-05 -2.51043e-05 -2.45313e-05 -2.39942e-05 -2.33687e-05 -2.27489e-05 -2.21477e-05 -2.15263e-05 -2.08432e-05 -2.01315e-05 -1.94087e-05 -1.86977e-05 -1.79243e-05 -1.71349e-05 -1.63498e-05 -1.55561e-05 -1.47304e-05 -1.37997e-05 -1.28322e-05 -1.18236e-05 -1.07479e-05 -9.60467e-06 -8.41589e-06 -7.1758e-06 -5.87562e-06 -4.51041e-06 -3.12249e-06 -1.68481e-06 -1.77368e-07 1.33921e-06 2.85852e-06 4.45603e-06 6.10576e-06 7.83187e-06 9.63521e-06 1.14979e-05 1.34716e-05 1.55198e-05 1.76899e-05 1.98711e-05 2.21302e-05 2.45132e-05 2.6939e-05 2.9539e-05 3.23436e-05 3.52762e-05 3.83291e-05 4.14322e-05 4.46338e-05 4.79667e-05 5.13987e-05 5.50339e-05 5.88856e-05 6.28435e-05 6.69836e-05 7.12823e-05 7.5687e-05 8.02826e-05 8.50933e-05 9.01714e-05 9.55186e-05 0.00010114 0.000107027 0.000113095 0.000119351 0.000125885 0.000132797 0.000140118 0.000147791 0.000155734 0.0001639 0.000172371 0.000181171 0.00019043 0.000200182 0.000210348 0.000220955 0.000232018 0.000243571 0.000255715 0.000268468 0.000281822 0.000295765 0.000310373 0.000325686 0.000341668 0.000358384 0.000375873 0.000394262 0.000413558 0.000433747 0.000454915 0.000477129 0.000500539 0.000525183 0.000551017 0.000578308 0.000607051 0.000637303 0.000669132 0.000702708 0.000738256 0.000775791 0.000815464 0.000857477 0.000902029 0.000949352 0.000999747 0.00105349 0.00111086 0.00117213 0.00123777 0.00130807 0.00138355 0.00146474 0.00155234 0.00164729 0.00175043 0.00186275 0.00198529 0.00211937 0.00226658 0.00242861 0.00260748 0.00280569 0.00302596 0.00327153 0.00354582 0.00385251 0.00419564 0.00457931 0.00500762 0.00548429 0.00601215 0.00659288 0.00722565 0.00790659 0.00862764 0.00937552 0.0101304 0.0108643 0.0115404 0.0121124 0.0125246 0.0127123 0.0126041 0.0121246 0.0111993 0.00976009 0.00775179 0.00513929 0.00191548 -0.00189197 -0.00621544 -0.0109448 -0.0159268 -0.0209703 -0.025854 -0.0303384 -0.0341813 -0.037155 -0.0390644 -0.0397638 -0.0391707 -0.0372758 -0.0341463 -0.0299236 -0.0248139 -0.0190735 -0.0129895 -0.00685914 -0.000967898 0.00443036 0.00912939 0.0129817 0.0159037 0.0178755 0.0189348 0.0191676 0.0186947 0.0176588 0.0162109 0.014498 0.0126539 0.0107922 0.00900294 0.00735115 0.00587832 0.00460515 0.00353546 0.00266037 0.00196236 0.00141898 0.00100583 0.000698838 0.000475819 0.000317398 0.000207362 0.000132646 8.30641e-05 5.09103e-05 3.05267e-05 1.78823e-05 1.01961e-05 5.61321e-06 2.93665e-06 1.41556e-06 5.87551e-07 1.69053e-07 -1.51222e-08 -7.37867e-08 -7.34015e-08 -5.2216e-08 -2.9623e-08 -1.31405e-08 -3.75123e-09 3.26428e-10 1.37508e-09 1.14604e-09 6.33721e-10 2.40939e-10 3.86959e-11 -2.89961e-11 -3.29236e-11 -1.90158e-11 -6.96241e-12 -9.01876e-13 8.98628e-13 8.55095e-13 4.17728e-13 1.13246e-13 -8.41336e-15 -2.87436e-14 -1.74606e-14 -5.81274e-15 -4.12718e-16 8.10645e-16 5.69421e-16 2.00157e-16 2.16118e-17 -1.99843e-17 -1.44419e-17 -4.81238e-18 -4.5531e-19 4.30205e-19 2.73739e-19 7.77259e-20 3.377e-21 -7.40401e-21 -3.62315e-21 -7.66768e-22 4.36283e-23 6.43721e-23 3.11763e-23 0 0 
0 0 3.4946e-23 8.73767e-23 1.12605e-22 -7.01813e-22 -4.10574e-21 -9.99326e-21 -1.82756e-21 8.27434e-20 3.4163e-19 6.463e-19 -2.07022e-19 -5.6153e-18 -1.93238e-17 -3.20257e-17 1.20658e-17 2.46521e-16 7.95109e-16 1.31669e-15 6.02828e-18 -7.26752e-15 -2.47448e-14 -4.56505e-14 -2.75501e-14 1.34372e-13 5.81865e-13 1.29799e-12 1.60193e-12 -6.09975e-13 -9.17117e-12 -2.76036e-11 -5.16885e-11 -5.44125e-11 3.2865e-11 3.24625e-10 9.3049e-10 1.79173e-09 2.36018e-09 1.15471e-09 -4.59728e-09 -1.87781e-08 -4.49648e-08 -8.29956e-08 -1.22883e-07 -1.35735e-07 -6.1392e-08 2.08403e-07 8.55019e-07 2.17414e-06 4.64655e-06 9.05658e-06 1.66786e-05 2.95502e-05 5.08477e-05 8.53721e-05 0.00014015 0.000225145 0.000354068 0.000545236 0.000822393 0.00121535 0.00176023 0.00249905 0.00347837 0.00474676 0.00635095 0.00833039 0.0107107 0.0134956 0.0166592 0.0201374 0.0238221 0.0275565 0.0311361 0.0343127 0.0368057 0.0383179 0.0385573 0.0372619 0.0342265 0.0293285 0.0225501 0.0139936 0.003887 -0.00742039 -0.0194742 -0.0317413 -0.0436453 -0.0546064 -0.0640836 -0.0716145 -0.0768477 -0.0795673 -0.0797051 -0.0773396 -0.0726847 -0.0660667 -0.0578956 -0.0486307 -0.0387468 -0.028702 -0.0189101 -0.00972069 -0.00140604 0.00584463 0.0119235 0.0167971 0.0204953 0.0230979 0.0247196 0.0254972 0.0255767 0.0251034 0.024214 0.0230311 0.0216598 0.0201872 0.018682 0.0171963 0.0157672 0.0144193 0.0131674 0.0120182 0.0109727 0.010028 0.00917837 0.0084164 0.00773422 0.00712376 0.00657723 0.00608722 0.00564689 0.00525026 0.00489198 0.00456733 0.00427241 0.00400359 0.00375774 0.00353227 0.00332504 0.00313401 0.00295738 0.00279362 0.00264138 0.00249962 0.00236745 0.00224393 0.0021283 0.0020199 0.00191809 0.00182237 0.00173226 0.00164728 0.00156698 0.00149112 0.00141941 0.00135145 0.00128698 0.00122588 0.00116786 0.00111279 0.00106042 0.00101064 0.00096323 0.000918155 0.000875201 0.000834219 0.000795169 0.00075794 0.000722458 0.000688545 0.000656113 0.000625183 0.000595668 0.000567469 0.000540525 0.00051476 0.000490191 0.000466736 0.000444288 0.000422835 0.000402327 0.000382708 0.000363944 0.000345941 0.000328611 0.000311926 0.000295944 0.000280616 0.000266019 0.0002521 0.000238774 0.000226 0.000213713 0.000201987 0.000190829 0.000180097 0.000169752 0.000159878 0.00015047 0.000141488 0.000132794 0.000124483 0.000116497 0.000108824 0.000101429 9.43006e-05 8.74898e-05 8.09906e-05 7.47109e-05 6.86896e-05 6.29344e-05 5.73857e-05 5.21031e-05 4.70806e-05 4.22854e-05 3.7633e-05 3.31052e-05 2.87315e-05 2.45605e-05 2.06471e-05 1.68834e-05 1.31793e-05 9.59689e-06 6.19407e-06 2.88265e-06 -3.51632e-07 -3.42895e-06 -6.30629e-06 -9.06188e-06 -1.1728e-05 -1.43336e-05 -1.68422e-05 -1.92301e-05 -2.15565e-05 -2.38301e-05 -2.59779e-05 -2.80019e-05 -3.003e-05 -3.19594e-05 -3.37267e-05 -3.53977e-05 -3.70522e-05 -3.87058e-05 -4.02851e-05 -4.18379e-05 -4.33624e-05 -4.47979e-05 -4.6146e-05 -4.74703e-05 -4.87178e-05 -4.9966e-05 -5.12123e-05 -5.24177e-05 -5.35343e-05 -5.4568e-05 -5.55466e-05 -5.6472e-05 -5.73734e-05 -5.8179e-05 -5.89987e-05 -5.97934e-05 -6.05126e-05 -6.12011e-05 -6.19511e-05 -6.26261e-05 -6.32547e-05 -6.38807e-05 -6.44724e-05 -6.50712e-05 -6.56921e-05 -6.62582e-05 -6.67756e-05 -6.72323e-05 -6.76969e-05 -6.81459e-05 -6.85158e-05 -6.88333e-05 -6.91343e-05 -6.94577e-05 -6.97873e-05 -7.00774e-05 -7.03363e-05 -7.0554e-05 -7.07515e-05 -7.09385e-05 -7.11584e-05 -7.13863e-05 -7.16137e-05 -7.18197e-05 -7.20449e-05 -7.21771e-05 -7.22696e-05 -7.23012e-05 -7.23361e-05 -7.23824e-05 -7.24637e-05 -7.25478e-05 -7.25302e-05 -7.2484e-05 -7.25302e-05 -7.25478e-05 -7.24637e-05 -7.23824e-05 -7.23361e-05 -7.23012e-05 -7.22696e-05 -7.21771e-05 -7.20449e-05 -7.18197e-05 -7.16137e-05 -7.13863e-05 -7.11584e-05 -7.09385e-05 -7.07515e-05 -7.0554e-05 -7.03363e-05 -7.00774e-05 -6.97873e-05 -6.94577e-05 -6.91343e-05 -6.88333e-05 -6.85158e-05 -6.81459e-05 -6.76969e-05 -6.72323e-05 -6.67756e-05 -6.62582e-05 -6.56921e-05 -6.50712e-05 -6.44724e-05 -6.38807e-05 -6.32547e-05 -6.26261e-05 -6.19511e-05 -6.12011e-05 -6.05126e-05 -5.97934e-05 -5.89987e-05 -5.8179e-05 -5.73734e-05 -5.6472e-05 -5.55466e-05 -5.4568e-05 -5.35343e-05 -5.24177e-05 -5.12123e-05 -4.9966e-05 -4.87178e-05 -4.74703e-05 -4.6146e-05 -4.47979e-05 -4.33624e-05 -4.18379e-05 -4.02851e-05 -3.87058e-05 -3.70522e-05 -3.53977e-05 -3.37267e-05 -3.19594e-05 -3.003e-05 -2.80019e-05 -2.59779e-05 -2.38301e-05 -2.15565e-05 -1.92301e-05 -1.68422e-05 -1.43336e-05 -1.1728e-05 -9.06188e-06 -6.30629e-06 -3.42895e-06 -3.51632e-07 2.88265e-06 6.19407e-06 9.59689e-06 1.31793e-05 1.68834e-05 2.06471e-05 2.45605e-05 2.87315e-05 3.31052e-05 3.7633e-05 4.22854e-05 4.70806e-05 5.21031e-05 5.73857e-05 6.29344e-05 6.86896e-05 7.47109e-05 8.09906e-05 8.74898e-05 9.43006e-05 0.000101429 0.000108824 0.000116497 0.000124483 0.000132794 0.000141488 0.00015047 0.000159878 0.000169752 0.000180097 0.000190829 0.000201987 0.000213713 0.000226 0.000238774 0.0002521 0.000266019 0.000280616 0.000295944 0.000311926 0.000328611 0.000345941 0.000363944 0.000382708 0.000402327 0.000422835 0.000444288 0.000466736 0.000490191 0.00051476 0.000540525 0.000567469 0.000595668 0.000625183 0.000656113 0.000688545 0.000722458 0.00075794 0.000795169 0.000834219 0.000875201 0.000918155 0.00096323 0.00101064 0.00106042 0.00111279 0.00116786 0.00122588 0.00128698 0.00135145 0.00141941 0.00149112 0.00156698 0.00164728 0.00173226 0.00182237 0.00191809 0.0020199 0.0021283 0.00224393 0.00236745 0.00249962 0.00264138 0.00279362 0.00295738 0.00313401 0.00332504 0.00353227 0.00375774 0.00400359 0.00427241 0.00456733 0.00489198 0.00525026 0.00564689 0.00608722 0.00657723 0.00712376 0.00773422 0.0084164 0.00917837 0.010028 0.0109727 0.0120182 0.0131674 0.0144193 0.0157672 0.0171963 0.018682 0.0201872 0.0216598 0.0230311 0.024214 0.0251034 0.0255767 0.0254972 0.0247196 0.0230979 0.0204953 0.0167971 0.0119235 0.00584463 -0.00140604 -0.00972069 -0.0189101 -0.028702 -0.0387468 -0.0486307 -0.0578956 -0.0660667 -0.0726847 -0.0773396 -0.0797051 -0.0795673 -0.0768477 -0.0716145 -0.0640836 -0.0546064 -0.0436453 -0.0317413 -0.0194742 -0.00742039 0.003887 0.0139936 0.0225501 0.0293285 0.0342265 0.0372619 0.0385573 0.0383179 0.0368057 0.0343127 0.0311361 0.0275565 0.0238221 0.0201374 0.0166592 0.0134956 0.0107107 0.00833039 0.00635095 0.00474676 0.00347836 0.00249905 0.00176023 0.00121535 0.000822392 0.000545235 0.000354068 0.000225145 0.00014015 8.53722e-05 5.08477e-05 2.95502e-05 1.66786e-05 9.05658e-06 4.64655e-06 2.17414e-06 8.55021e-07 2.08403e-07 -6.13919e-08 -1.35735e-07 -1.22883e-07 -8.29956e-08 -4.49647e-08 -1.87781e-08 -4.59729e-09 1.15471e-09 2.36018e-09 1.79173e-09 9.30489e-10 3.24625e-10 3.28651e-11 -5.44124e-11 -5.16884e-11 -2.76035e-11 -9.17108e-12 -6.10245e-13 1.60056e-12 1.29371e-12 5.80081e-13 1.34e-13 -2.74551e-14 -4.55126e-14 -2.46724e-14 -7.2468e-15 5.83346e-18 1.31289e-15 7.92856e-16 2.45831e-16 1.20337e-17 -3.19365e-17 -1.92705e-17 -5.59991e-18 -2.06461e-19 6.44545e-19 3.40706e-19 8.25205e-20 -1.82104e-21 -9.96132e-21 -4.09124e-21 -7.35653e-22 -4.90231e-23 6.54143e-23 0 0 
0 0 9.33919e-23 1.12605e-22 -2.39061e-22 -3.46898e-21 -1.21564e-20 -1.59104e-20 4.88684e-20 3.34755e-19 8.94459e-19 7.41712e-19 -4.07326e-18 -2.06442e-17 -4.71794e-17 -3.15178e-17 1.93707e-16 8.82843e-16 1.92346e-15 1.52883e-15 -5.57596e-15 -2.73301e-14 -6.29095e-14 -7.07725e-14 7.87672e-14 6.08629e-13 1.64407e-12 2.59527e-12 1.03561e-12 -8.24353e-12 -3.16868e-11 -6.86013e-11 -9.14978e-11 -1.71165e-11 3.11402e-10 1.07933e-09 2.30887e-09 3.44179e-09 2.70914e-09 -3.47149e-09 -2.04783e-08 -5.38917e-08 -1.05205e-07 -1.63938e-07 -1.95804e-07 -1.26897e-07 1.76988e-07 9.40024e-07 2.52506e-06 5.51912e-06 1.08803e-05 2.0174e-05 3.59233e-05 6.20919e-05 0.00010471 0.000172643 0.000278504 0.000439685 0.000679462 0.00102806 0.00152346 0.00221174 0.00314646 0.0043869 0.00599464 0.0080284 0.010537 0.0135503 0.0170696 0.0210563 0.0254222 0.030021 0.034644 0.0390209 0.0428276 0.0457009 0.0472608 0.0471402 0.0450177 0.040653 0.0339199 0.0248332 0.0135667 0.000457225 -0.0140054 -0.0292035 -0.0444299 -0.0589369 -0.0719912 -0.0829277 -0.0912007 -0.0964232 -0.098393 -0.0971031 -0.0927345 -0.0856337 -0.0762793 -0.0652391 -0.0531243 -0.0405441 -0.0280666 -0.0161856 -0.0052987 0.00430388 0.0124424 0.0190396 0.0241086 0.0277352 0.0300592 0.0312538 0.0315092 0.0310174 0.0299613 0.0285058 0.0267936 0.0249422 0.0230444 0.0211703 0.0193696 0.017675 0.0161055 0.0146697 0.0133681 0.0121963 0.011146 0.0102076 0.00937018 0.00862273 0.00795511 0.00735783 0.00682229 0.00634059 0.00590569 0.00551205 0.00515444 0.00482862 0.00453107 0.00425812 0.00400703 0.00377565 0.00356187 0.00336376 0.00317946 0.00300782 0.00284759 0.00269787 0.00255789 0.00242654 0.00230339 0.00218763 0.00207857 0.00197564 0.00187848 0.00178668 0.00169983 0.00161762 0.00153977 0.00146581 0.00139566 0.00132909 0.0012659 0.0012059 0.00114859 0.00109423 0.0010424 0.000992997 0.000945831 0.000900883 0.000858065 0.000817111 0.000778029 0.000740778 0.000705049 0.000671164 0.000638782 0.000607772 0.000578253 0.00054997 0.000523054 0.000497313 0.000472623 0.000449058 0.000426594 0.000405217 0.000384561 0.000364596 0.000345448 0.000327033 0.000309487 0.000292769 0.000276952 0.000261799 0.000247183 0.000233113 0.00021972 0.000207054 0.000195019 0.000183277 0.000171917 0.000161052 0.00015069 0.000140737 0.000131239 0.000122175 0.000113386 0.000105027 9.68729e-05 8.90163e-05 8.16263e-05 7.45513e-05 6.77906e-05 6.12885e-05 5.50173e-05 4.91156e-05 4.34105e-05 3.79221e-05 3.2778e-05 2.76856e-05 2.26592e-05 1.79547e-05 1.34032e-05 9.20945e-06 5.06797e-06 9.81716e-07 -3.01077e-06 -6.74722e-06 -1.03518e-05 -1.38966e-05 -1.71453e-05 -2.01603e-05 -2.30194e-05 -2.58308e-05 -2.8618e-05 -3.13153e-05 -3.38941e-05 -3.64277e-05 -3.88469e-05 -4.10753e-05 -4.3276e-05 -4.55614e-05 -4.76625e-05 -4.96527e-05 -5.14274e-05 -5.31853e-05 -5.49319e-05 -5.66222e-05 -5.84754e-05 -6.02685e-05 -6.18509e-05 -6.33126e-05 -6.47843e-05 -6.61012e-05 -6.74384e-05 -6.87563e-05 -7.02016e-05 -7.13902e-05 -7.23103e-05 -7.3359e-05 -7.43093e-05 -7.52254e-05 -7.60629e-05 -7.69571e-05 -7.78935e-05 -7.86875e-05 -7.92699e-05 -8.00088e-05 -8.06732e-05 -8.14362e-05 -8.21473e-05 -8.29393e-05 -8.36803e-05 -8.43177e-05 -8.47866e-05 -8.52676e-05 -8.57684e-05 -8.63654e-05 -8.6822e-05 -8.72231e-05 -8.75787e-05 -8.79831e-05 -8.82938e-05 -8.85765e-05 -8.88803e-05 -8.91882e-05 -8.93494e-05 -8.95075e-05 -8.96116e-05 -8.97559e-05 -8.99985e-05 -9.02701e-05 -9.05535e-05 -9.07151e-05 -9.09807e-05 -9.12146e-05 -9.11885e-05 -9.11707e-05 -9.12039e-05 -9.12636e-05 -9.14814e-05 -9.1581e-05 -9.16672e-05 -9.1581e-05 -9.14814e-05 -9.12636e-05 -9.12039e-05 -9.11707e-05 -9.11885e-05 -9.12146e-05 -9.09807e-05 -9.07151e-05 -9.05535e-05 -9.02701e-05 -8.99985e-05 -8.97559e-05 -8.96116e-05 -8.95075e-05 -8.93494e-05 -8.91882e-05 -8.88803e-05 -8.85765e-05 -8.82938e-05 -8.79831e-05 -8.75787e-05 -8.72231e-05 -8.6822e-05 -8.63654e-05 -8.57684e-05 -8.52676e-05 -8.47866e-05 -8.43177e-05 -8.36803e-05 -8.29393e-05 -8.21473e-05 -8.14362e-05 -8.06732e-05 -8.00088e-05 -7.92699e-05 -7.86875e-05 -7.78935e-05 -7.69571e-05 -7.60629e-05 -7.52254e-05 -7.43093e-05 -7.3359e-05 -7.23103e-05 -7.13902e-05 -7.02016e-05 -6.87563e-05 -6.74384e-05 -6.61012e-05 -6.47843e-05 -6.33126e-05 -6.18509e-05 -6.02685e-05 -5.84754e-05 -5.66222e-05 -5.49319e-05 -5.31853e-05 -5.14274e-05 -4.96527e-05 -4.76625e-05 -4.55614e-05 -4.3276e-05 -4.10753e-05 -3.88469e-05 -3.64277e-05 -3.38941e-05 -3.13153e-05 -2.8618e-05 -2.58308e-05 -2.30194e-05 -2.01603e-05 -1.71453e-05 -1.38966e-05 -1.03518e-05 -6.74722e-06 -3.01077e-06 9.81716e-07 5.06797e-06 9.20945e-06 1.34032e-05 1.79547e-05 2.26592e-05 2.76856e-05 3.2778e-05 3.79221e-05 4.34105e-05 4.91156e-05 5.50173e-05 6.12885e-05 6.77906e-05 7.45513e-05 8.16263e-05 8.90163e-05 9.68729e-05 0.000105027 0.000113386 0.000122175 0.000131239 0.000140737 0.00015069 0.000161052 0.000171917 0.000183277 0.000195019 0.000207054 0.00021972 0.000233113 0.000247183 0.000261799 0.000276952 0.000292769 0.000309487 0.000327033 0.000345448 0.000364596 0.000384561 0.000405217 0.000426594 0.000449058 0.000472623 0.000497313 0.000523054 0.00054997 0.000578253 0.000607772 0.000638782 0.000671164 0.000705049 0.000740778 0.000778029 0.000817111 0.000858065 0.000900883 0.000945831 0.000992997 0.0010424 0.00109423 0.00114859 0.0012059 0.0012659 0.00132909 0.00139566 0.00146581 0.00153977 0.00161762 0.00169983 0.00178668 0.00187848 0.00197564 0.00207857 0.00218763 0.00230339 0.00242654 0.00255789 0.00269787 0.00284759 0.00300782 0.00317946 0.00336376 0.00356187 0.00377565 0.00400703 0.00425812 0.00453107 0.00482862 0.00515444 0.00551205 0.00590569 0.00634059 0.00682229 0.00735783 0.00795511 0.00862273 0.00937018 0.0102076 0.011146 0.0121963 0.0133681 0.0146697 0.0161055 0.017675 0.0193696 0.0211703 0.0230444 0.0249422 0.0267936 0.0285058 0.0299613 0.0310174 0.0315092 0.0312538 0.0300592 0.0277352 0.0241086 0.0190396 0.0124424 0.00430388 -0.0052987 -0.0161856 -0.0280666 -0.0405441 -0.0531243 -0.0652391 -0.0762793 -0.0856337 -0.0927345 -0.0971031 -0.098393 -0.0964232 -0.0912007 -0.0829277 -0.0719912 -0.0589369 -0.0444299 -0.0292035 -0.0140054 0.000457225 0.0135667 0.0248332 0.0339199 0.040653 0.0450177 0.0471402 0.0472608 0.0457009 0.0428276 0.0390209 0.034644 0.030021 0.0254222 0.0210563 0.0170696 0.0135503 0.010537 0.0080284 0.00599464 0.0043869 0.00314646 0.00221174 0.00152346 0.00102806 0.000679462 0.000439685 0.000278504 0.000172643 0.00010471 6.2092e-05 3.59233e-05 2.0174e-05 1.08803e-05 5.51912e-06 2.52507e-06 9.40025e-07 1.76988e-07 -1.26897e-07 -1.95804e-07 -1.63938e-07 -1.05205e-07 -5.38917e-08 -2.04783e-08 -3.47151e-09 2.70913e-09 3.44179e-09 2.30887e-09 1.07933e-09 3.11403e-10 -1.71162e-11 -9.14976e-11 -6.86011e-11 -3.16869e-11 -8.24491e-12 1.03149e-12 2.58756e-12 1.639e-12 6.06842e-13 7.85642e-14 -7.05519e-14 -6.27233e-14 -2.72512e-14 -5.56035e-15 1.5243e-15 1.91799e-15 8.80363e-16 1.9317e-16 -3.1429e-17 -4.7049e-17 -2.05876e-17 -4.06215e-18 7.39694e-19 8.92038e-19 3.33853e-19 4.87428e-20 -1.58572e-20 -1.21398e-20 -3.62452e-21 -7.35778e-22 4.34589e-23 0 0 