<?xml version="1.0"?>
<VTKFile type="ImageData" version="0.1" byte_order="LittleEndian">
<ImageData WholeExtent="0 599 0 599 0 0" Origin="0 0 0" Spacing="5 5 0">
<Piece Extent="0 599 0 599 0 0">
<PointData Scalars="Amplitude">
<DataArray type="Float32" Name="Amplitude" format="ascii">
0 0 0 0 0 0 0 0 0 0 0 0 0 0 0 0 0 0 0 0 0 0 0 0 0 0 0 0 0 0 0 0 0 0 0 0 0 0 0 0 0 0 0 0 0 0 0 0 0 0 0 0 0 0 0 0 0 0 0 0 0 0 0 0 0 0 0 0 0 0 0 0 0 0 0 0 0 0 0 0 0 0 0 0 0 0 0 0 0 0 0 0 0 0 0 0 0 0 0 0 0 0 0 0 0 0 0 0 0 0 0 0 0 0 0 0 0 0 0 0 0 0 0 0 0 0 0 0 0 0 0 0 0 0 0 0 0 0 0 0 0 0 0 0 0 0 0 0 0 0 0 0 0 0 0 0 0 0 0 0 0 0 0 0 0 0 0 0 0 0 0 0 0 0 0 0 0 0 0 0 0 0 0 0 0 0 0 0 0 0 0 0 0 0 0 0 0 0 0 0 0 0 0 0 0 0 0 0 0 0 0 0 0 0 0 0 0 0 0 0 0 0 0 0 0 0 0 0 0 0 0 0 0 0 0 0 0 0 0 0 0 0 0 0 0 0 0 0 0 0 0 0 0 0 0 0 0 0 0 0 0 0 0 0 0 0 0 0 0 0 0 0 0 0 0 0 0 0 0 0 0 0 0 0 0 0 0 0 0 0 0 0 0 0 0 0 0 0 0 0 0 0 0 0 0 0 0 0 0 0 0 0 0 0 0 0 0 0 0 0 0 0 0 0 0 0 0 0 0 0 0 0 0 0 0 0 0 0 0 0 0 0 0 0 0 0 0 0 0 0 0 0 0 0 0 0 0 0 0 0 0 0 0 0 0 0 0 0 0 0 0 0 0 0 0 0 0 0 0 0 0 0 0 0 0 0 0 0 0 0 0 0 0 0 0 0 0 0 0 0 0 0 0 0 0 0 0 0 0 0 0 0 0 0 0 0 0 0 0 0 0 0 0 0 0 0 0 0 0 0 0 0 0 0 0 0 0 0 0 0 0 0 0 0 0 0 0 0 0 0 0 0 0 0 0 0 0 0 0 0 0 0 0 0 0 0 0 0 0 0 0 0 0 0 0 0 0 0 0 0 0 0 0 0 0 0 0 0 0 0 0 0 0 0 0 0 0 0 0 0 0 0 0 0 0 0 0 0 0 0 0 0 0 0 0 0 0 0 0 0 0 0 0 0 0 0 0 0 0 0 0 0 0 0 0 0 0 0 0 0 0 0 0 0 0 0 0 0 0 0 0 0 0 0 0 0 0 0 0 0 0 0 0 0 0 0 0 0 0 0 0 0 0 0 0 0 0 0 0 0 0 0 0 0 0 0 0 0 0 0 0 0 0 0 0 0 0 0 0 0 
0 0 0 0 0 0 0 0 0 0 0 0 0 0 0 0 0 0 0 0 0 0 0 0 0 0 0 0 0 0 0 0 0 0 0 0 0 0 0 0 0 0 0 0 0 0 0 0 0 0 0 0 0 0 0 0 0 0 0 0 0 0 0 0 0 0 0 0 0 0 0 0 0 0 0 0 0 0 0 0 0 0 0 0 0 0 0 0 0 0 0 0 0 0 0 0 0 0 0 0 0 0 0 0 0 0 0 0 0 0 0 0 0 0 0 0 0 0 0 0 0 0 0 0 0 0 0 0 0 0 0 0 0 0 0 0 0 0 0 0 0 0 0 0 0 0 0 0 0 0 0 0 0 0 0 0 0 0 0 0 0 0 0 0 0 0 0 0 0 0 0 0 0 0 0 0 0 0 0 0 0 0 0 0 0 0 0 0 0 0 0 0 0 0 0 0 0 0 0 0 0 0 0 0 0 0 0 0 0 0 0 0 0 0 0 0 0 0 0 0 0 0 0 0 0 0 0 0 0 0 0 0 0 0 0 0 0 0 0 0 0 0 0 0 0 0 0 0 0 0 0 0 0 0 0 0 0 0 0 0 0 0 0 0 0 0 0 0 0 0 0 0 0 0 0 0 0 0 0 0 0 0 0 0 0 0 0 0 0 0 0 0 0 0 0 0 0 0 0 0 0 0 0 0 0 0 0 0 0 0 0 0 0 0 0 0 0 0 0 0 0 0 0 0 0 0 0 0 0 0 0 0 0 0 0 0 0 0 0 0 0 0 0 0 0 0 0 0 0 0 0 0 0 0 0 0 0 0 0 0 0 0 0 0 0 0 0 0 0 0 0 0 0 0 0 0 0 0 0 0 0 0 0 0 0 0 0 0 0 0 0 0 0 0 0 0 0 0 0 0 0 0 0 0 0 0 0 0 0 0 0 0 0 0 0 0 0 0 0 0 0 0 0 0 0 0 0 0 0 0 0 0 0 0 0 0 0 0 0 0 0 0 0 0 0 0 0 0 0 0 0 0 0 0 0 0 0 0 0 0 0 0 0 0 0 0 0 0 0 0 0 0 0 0 0 0 0 0 0 0 0 0 0 0 0 0 0 0 0 0 0 0 0 0 0 0 0 0 0 0 0 0 0 0 0 0 0 0 0 0 0 0 0 0 0 0 0 0 0 0 0 0 0 0 0 0 0 0 0 0 0 0 0 0 0 0 0 0 0 0 0 0 0 0 0 0 0 0 0 0 0 0 0 0 0 0 0 0 0 0 0 0 0 0 0 0 0 0 0 0 0 0 0 0 0 0 0 0 0 0 0 0 0 0 0 0 0 0 0 0 0 0 0 0 0 0 0 0 0 0 
0 0 1.7333e-08 3.46168e-08 5.18599e-08 8.24636e-08 1.20061e-07 1.50593e-07 2.11227e-07 3.10788e-07 3.9169e-07 4.7732e-07 6.03003e-07 7.40901e-07 9.11776e-07 1.08468e-06 1.25899e-06 1.47041e-06 1.63843e-06 1.813e-06 2.00939e-06 2.19084e-06 2.44179e-06 2.66639e-06 2.77523e-06 2.8527e-06 3.01374e-06 3.18264e-06 3.3696e-06 3.46303e-06 3.51658e-06 3.63724e-06 3.75472e-06 3.84398e-06 3.94456e-06 3.94868e-06 3.94018e-06 4.00166e-06 3.98294e-06 3.90165e-06 3.81031e-06 3.71933e-06 3.63652e-06 3.52726e-06 3.47393e-06 3.41859e-06 3.22965e-06 3.04039e-06 2.90817e-06 2.65515e-06 2.411e-06 2.08564e-06 1.66485e-06 1.33953e-06 1.0062e-06 6.09485e-07 1.94251e-07 -2.90447e-07 -8.34284e-07 -1.40567e-06 -2.01031e-06 -2.65423e-06 -3.41989e-06 -4.20727e-06 -4.94022e-06 -5.72607e-06 -6.62479e-06 -7.58986e-06 -8.64136e-06 -9.70238e-06 -1.07834e-05 -1.20004e-05 -1.32992e-05 -1.46927e-05 -1.61277e-05 -1.76e-05 -1.919e-05 -2.08907e-05 -2.26598e-05 -2.45942e-05 -2.66447e-05 -2.87728e-05 -3.10007e-05 -3.33591e-05 -3.58498e-05 -3.84137e-05 -4.11036e-05 -4.39818e-05 -4.70225e-05 -5.02224e-05 -5.35416e-05 -5.69872e-05 -6.05939e-05 -6.44108e-05 -6.84031e-05 -7.25994e-05 -7.7015e-05 -8.15841e-05 -8.63569e-05 -9.13393e-05 -9.65412e-05 -0.000101925 -0.000107544 -0.000113419 -0.000119508 -0.000125851 -0.000132449 -0.000139296 -0.000146351 -0.000153646 -0.000161206 -0.000168956 -0.000176962 -0.000185219 -0.000193704 -0.000202428 -0.000211337 -0.000220384 -0.000229583 -0.000238925 -0.000248478 -0.000258171 -0.000268009 -0.000277978 -0.00028801 -0.00029807 -0.000308198 -0.00031839 -0.000328617 -0.000338833 -0.00034901 -0.000359078 -0.000369079 -0.000378899 -0.000388513 -0.000397835 -0.000406771 -0.000415268 -0.000423196 -0.000430363 -0.000436588 -0.000441599 -0.00044491 -0.000446062 -0.000444586 -0.000439667 -0.000430372 -0.000415675 -0.000394417 -0.000365495 -0.000327796 -0.000280362 -0.000222433 -0.000153563 -7.36859e-05 1.68255e-05 0.000117356 0.000226892 0.000344241 0.000467976 0.000596451 0.000727887 0.000860226 0.000991153 0.00111819 0.00123872 0.00134995 0.00144908 0.00153356 0.00160098 0.00164935 0.00167708 0.00168304 0.00166659 0.00162752 0.00156616 0.00148325 0.00138 0.00125802 0.00111944 0.000966627 0.000802338 0.000629633 0.000451676 0.000271809 9.34302e-05 -8.01526e-05 -0.00024572 -0.000400406 -0.000541473 -0.00066663 -0.000773845 -0.000861651 -0.000929015 -0.000975404 -0.00100088 -0.001006 -0.000991815 -0.000960019 -0.000912788 -0.000852665 -0.000782509 -0.000705467 -0.000624576 -0.000542919 -0.000463164 -0.000387632 -0.000318107 -0.00025587 -0.000201642 -0.000155687 -0.000117711 -8.70962e-05 -6.30607e-05 -4.47093e-05 -3.11166e-05 -2.12843e-05 -1.43578e-05 -9.60324e-06 -6.44978e-06 -4.39894e-06 -3.13929e-06 -2.31742e-06 -1.84239e-06 -1.54813e-06 -1.37605e-06 -1.26327e-06 -1.1984e-06 -1.17645e-06 -1.19691e-06 -1.20782e-06 -1.23149e-06 -1.26411e-06 -1.28288e-06 -1.29551e-06 -1.26221e-06 -1.22225e-06 -1.1922e-06 -1.14516e-06 -1.13046e-06 -1.16646e-06 -1.17724e-06 -1.18858e-06 -1.20435e-06 -1.22214e-06 -1.26078e-06 -1.26855e-06 -1.23374e-06 -1.17328e-06 -1.13247e-06 -1.13621e-06 -1.1264e-06 -1.147e-06 -1.14123e-06 -1.17366e-06 -1.20046e-06 -1.24183e-06 -1.22204e-06 -1.19739e-06 -1.18224e-06 -1.16347e-06 -1.14188e-06 -1.18449e-06 -1.15171e-06 -1.09957e-06 -1.101e-06 -1.092e-06 -1.06824e-06 -1.10177e-06 -1.0945e-06 -1.07626e-06 -1.03588e-06 -1.03677e-06 -1.04996e-06 -1.04958e-06 -1.05149e-06 -1.05307e-06 -1.04324e-06 -1.01459e-06 -1.00131e-06 -1.03983e-06 -1.05992e-06 -1.06338e-06 -1.0722e-06 -1.12489e-06 -1.17045e-06 -1.15662e-06 -1.10716e-06 -1.10712e-06 -1.12283e-06 -1.15092e-06 -1.174e-06 -1.16176e-06 -1.14751e-06 -1.11869e-06 -1.07608e-06 -1.08279e-06 -1.12791e-06 -1.1309e-06 -1.115e-06 -1.08419e-06 -1.11489e-06 -1.1308e-06 -1.12795e-06 -1.08301e-06 -1.07635e-06 -1.11889e-06 -1.14772e-06 -1.16239e-06 -1.17553e-06 -1.15341e-06 -1.12583e-06 -1.11004e-06 -1.10967e-06 -1.15868e-06 -1.17195e-06 -1.12565e-06 -1.07231e-06 -1.06354e-06 -1.06111e-06 -1.04226e-06 -1.00413e-06 -1.01732e-06 -1.04666e-06 -1.05748e-06 -1.05501e-06 -1.04959e-06 -1.04544e-06 -1.02814e-06 -1.02441e-06 -1.06506e-06 -1.08775e-06 -1.10097e-06 -1.07113e-06 -1.09612e-06 -1.10542e-06 -1.10188e-06 -1.14668e-06 -1.16935e-06 -1.12082e-06 -1.14319e-06 -1.16444e-06 -1.1804e-06 -1.20836e-06 -1.23795e-06 -1.20858e-06 -1.18794e-06 -1.15447e-06 -1.15951e-06 -1.14503e-06 -1.16397e-06 -1.16365e-06 -1.20025e-06 -1.25397e-06 -1.28482e-06 -1.27753e-06 -1.23915e-06 -1.21769e-06 -1.20051e-06 -1.19589e-06 -1.19424e-06 -1.16322e-06 -1.17972e-06 -1.22731e-06 -1.25648e-06 -1.29669e-06 -1.33927e-06 -1.35296e-06 -1.38602e-06 -1.45044e-06 -1.60111e-06 -1.87609e-06 -2.28593e-06 -2.93235e-06 -3.89391e-06 -5.25235e-06 -7.06198e-06 -9.38759e-06 -1.22504e-05 -1.57375e-05 -1.97776e-05 -2.44354e-05 -2.96397e-05 -3.54853e-05 -4.21621e-05 -5.00784e-05 -5.98819e-05 -7.25473e-05 -8.92007e-05 -0.000111196 -0.00014001 -0.000177063 -0.000223423 -0.000279515 -0.000345155 -0.000419343 -0.000500264 -0.000585275 -0.000671197 -0.000754343 -0.000831055 -0.000897619 -0.000950736 -0.000987558 -0.00100578 -0.00100371 -0.000980387 -0.000935399 -0.000868881 -0.000781532 -0.000674492 -0.000549347 -0.000408208 -0.000253375 -8.75817e-05 8.63107e-05 0.000265135 0.000445698 0.000624722 0.000798933 0.000965183 0.0011204 0.00126172 0.00138664 0.00149284 0.00157839 0.00164178 0.00168202 0.00169863 0.00169172 0.001662 0.00161076 0.00153981 0.00145142 0.0013481 0.00123247 0.00110729 0.000975183 0.000838681 0.000700263 0.00056236 0.00042738 0.000297663 0.000175463 6.2792e-05 -3.8722e-05 -0.000127927 -0.000204317 -0.000267803 -0.000318972 -0.000358897 -0.000388912 -0.000410471 -0.000425042 -0.000433937 -0.00043836 -0.000439341 -0.00043775 -0.000434203 -0.000429082 -0.000422766 -0.000415571 -0.000407701 -0.000399309 -0.000390505 -0.000381386 -0.000371999 -0.000362418 -0.000352723 -0.000342959 -0.0003332 -0.000323379 -0.000313554 -0.000303745 -0.000294009 -0.000284362 -0.000274815 -0.000265348 -0.000255955 -0.000246706 -0.000237604 -0.000228615 -0.000219828 -0.000211185 -0.000202664 -0.00019428 -0.000186085 -0.000178088 -0.000170321 -0.000162779 -0.00015547 -0.000148339 -0.000141447 -0.000134781 -0.000128303 -0.000122049 -0.000116032 -0.000110253 -0.000104682 -9.93346e-05 -9.42204e-05 -8.92802e-05 -8.45586e-05 -8.00329e-05 -7.56846e-05 -7.1491e-05 -6.74959e-05 -6.37057e-05 -6.00639e-05 -5.66161e-05 -5.3316e-05 -5.01318e-05 -4.70654e-05 -4.41523e-05 -4.13813e-05 -3.87931e-05 -3.63145e-05 -3.39015e-05 -3.16296e-05 -2.9479e-05 -2.74309e-05 -2.54441e-05 -2.35657e-05 -2.18452e-05 -2.01856e-05 -1.86314e-05 -1.71917e-05 -1.57891e-05 -1.44199e-05 -1.31388e-05 -1.19361e-05 -1.08567e-05 -9.79536e-06 -8.73771e-06 -7.76757e-06 -6.86385e-06 -6.07072e-06 -5.34217e-06 -4.54613e-06 -3.77865e-06 -3.12389e-06 -2.51384e-06 -1.93147e-06 -1.38759e-06 -8.91151e-07 -4.77295e-07 -7.65851e-08 2.60664e-07 5.94405e-07 1.03292e-06 1.37407e-06 1.63056e-06 1.8923e-06 2.03952e-06 2.24926e-06 2.46404e-06 2.53112e-06 2.60501e-06 2.73031e-06 2.83759e-06 2.94649e-06 3.06213e-06 3.16359e-06 3.20418e-06 3.16119e-06 3.19165e-06 3.20267e-06 3.12735e-06 3.06149e-06 2.976e-06 2.87761e-06 2.85049e-06 2.772e-06 2.60951e-06 2.46297e-06 2.32921e-06 2.27651e-06 2.19839e-06 1.99709e-06 1.77659e-06 1.62677e-06 1.46133e-06 1.3227e-06 1.18198e-06 1.00277e-06 8.61663e-07 7.18536e-07 5.74364e-07 4.59017e-07 3.50187e-07 2.8261e-07 2.19349e-07 1.37436e-07 9.3829e-08 7.2573e-08 4.08338e-08 2.24994e-08 1.30322e-08 0 0 
0 0 3.46168e-08 7.44428e-08 1.18191e-07 1.77109e-07 2.4155e-07 3.33722e-07 4.83312e-07 6.53558e-07 8.21644e-07 1.03262e-06 1.29132e-06 1.5939e-06 1.92679e-06 2.25822e-06 2.64882e-06 3.06109e-06 3.43561e-06 3.80895e-06 4.17877e-06 4.62762e-06 5.08287e-06 5.43233e-06 5.71499e-06 6.03983e-06 6.36192e-06 6.66296e-06 6.96373e-06 7.19569e-06 7.46126e-06 7.70474e-06 7.87549e-06 8.05057e-06 8.14773e-06 8.17163e-06 8.25436e-06 8.29716e-06 8.27225e-06 8.22119e-06 8.08208e-06 7.94057e-06 7.80546e-06 7.66405e-06 7.48809e-06 7.22306e-06 6.90605e-06 6.61451e-06 6.19925e-06 5.73643e-06 5.23392e-06 4.55659e-06 3.90842e-06 3.25254e-06 2.45798e-06 1.63582e-06 7.47736e-07 -2.54962e-07 -1.26839e-06 -2.3945e-06 -3.63277e-06 -5.01397e-06 -6.48738e-06 -7.96881e-06 -9.53042e-06 -1.12659e-05 -1.31092e-05 -1.50266e-05 -1.70438e-05 -1.91938e-05 -2.15166e-05 -2.3989e-05 -2.66226e-05 -2.93642e-05 -3.22315e-05 -3.53128e-05 -3.86237e-05 -4.20972e-05 -4.58063e-05 -4.97048e-05 -5.38009e-05 -5.81052e-05 -6.26518e-05 -6.74556e-05 -7.24625e-05 -7.77212e-05 -8.32942e-05 -8.91387e-05 -9.52703e-05 -0.000101704 -0.00010844 -0.000115513 -0.000122939 -0.000130695 -0.000138797 -0.000147346 -0.000156288 -0.000165647 -0.000175393 -0.000185558 -0.000196152 -0.000207191 -0.000218698 -0.000230641 -0.000243111 -0.000256096 -0.000269571 -0.000283547 -0.00029798 -0.000312953 -0.000328417 -0.00034435 -0.000360781 -0.000377695 -0.000395022 -0.000412811 -0.000430988 -0.000449562 -0.000468543 -0.000487892 -0.000507523 -0.000527422 -0.00054763 -0.000568051 -0.000588679 -0.000609482 -0.000630395 -0.000651426 -0.000672453 -0.000693493 -0.000714447 -0.000735316 -0.00075601 -0.000776409 -0.000796391 -0.000815774 -0.000834474 -0.000852298 -0.000869005 -0.000884256 -0.000897634 -0.000908543 -0.000916261 -0.000919926 -0.00091834 -0.000910004 -0.000893208 -0.000865824 -0.000825644 -0.000770286 -0.000697388 -0.000604888 -0.000491136 -0.000355153 -0.000196626 -1.59301e-05 0.00018577 0.00040666 0.000644351 0.000896003 0.0011584 0.00142786 0.00170029 0.00197112 0.00223536 0.00248763 0.00272225 0.00293353 0.00311603 0.00326475 0.00337532 0.00344424 0.00346887 0.00344757 0.00337974 0.00326572 0.00310686 0.00290538 0.00266443 0.00238803 0.00208096 0.00174869 0.00139726 0.00103319 0.000663357 0.000294595 -6.6073e-05 -0.000412127 -0.000737356 -0.00103604 -0.0013032 -0.00153453 -0.00172669 -0.0018773 -0.00198497 -0.00204946 -0.00207163 -0.00205352 -0.00199814 -0.00190966 -0.00179314 -0.00165441 -0.00149965 -0.00133523 -0.00116738 -0.00100183 -0.000843621 -0.000696758 -0.000564202 -0.000447737 -0.000348115 -0.000265065 -0.000197623 -0.000144264 -0.00010315 -7.23275e-05 -4.97591e-05 -3.37043e-05 -2.25967e-05 -1.51367e-05 -1.0274e-05 -7.18012e-06 -5.29438e-06 -4.11567e-06 -3.39745e-06 -3.00986e-06 -2.80829e-06 -2.68268e-06 -2.60542e-06 -2.57013e-06 -2.54298e-06 -2.54058e-06 -2.57869e-06 -2.55816e-06 -2.53416e-06 -2.52007e-06 -2.48981e-06 -2.44399e-06 -2.44081e-06 -2.45191e-06 -2.44483e-06 -2.43016e-06 -2.41593e-06 -2.39625e-06 -2.38597e-06 -2.39917e-06 -2.42009e-06 -2.42979e-06 -2.3809e-06 -2.33602e-06 -2.3131e-06 -2.35226e-06 -2.3961e-06 -2.47498e-06 -2.46729e-06 -2.44201e-06 -2.36747e-06 -2.34876e-06 -2.38537e-06 -2.36901e-06 -2.3244e-06 -2.31975e-06 -2.36434e-06 -2.34298e-06 -2.30471e-06 -2.23813e-06 -2.21888e-06 -2.22531e-06 -2.20195e-06 -2.20109e-06 -2.23941e-06 -2.21365e-06 -2.20552e-06 -2.16643e-06 -2.15924e-06 -2.19891e-06 -2.17061e-06 -2.16275e-06 -2.1697e-06 -2.16487e-06 -2.18193e-06 -2.22049e-06 -2.27556e-06 -2.30179e-06 -2.30255e-06 -2.297e-06 -2.32342e-06 -2.31793e-06 -2.33288e-06 -2.29602e-06 -2.28584e-06 -2.24665e-06 -2.25723e-06 -2.26636e-06 -2.26951e-06 -2.26219e-06 -2.2843e-06 -2.31333e-06 -2.34966e-06 -2.35098e-06 -2.3823e-06 -2.35091e-06 -2.34968e-06 -2.31356e-06 -2.28471e-06 -2.26258e-06 -2.2699e-06 -2.26731e-06 -2.25956e-06 -2.25071e-06 -2.2911e-06 -2.30159e-06 -2.33818e-06 -2.32264e-06 -2.3271e-06 -2.29924e-06 -2.30356e-06 -2.30259e-06 -2.27736e-06 -2.22369e-06 -2.18594e-06 -2.16953e-06 -2.17632e-06 -2.17217e-06 -2.18022e-06 -2.2037e-06 -2.15597e-06 -2.15469e-06 -2.18625e-06 -2.19029e-06 -2.21903e-06 -2.18997e-06 -2.20077e-06 -2.23136e-06 -2.22945e-06 -2.24806e-06 -2.30409e-06 -2.32361e-06 -2.32844e-06 -2.27783e-06 -2.28444e-06 -2.33246e-06 -2.35453e-06 -2.33128e-06 -2.36957e-06 -2.46079e-06 -2.49317e-06 -2.50132e-06 -2.42574e-06 -2.39302e-06 -2.36675e-06 -2.39425e-06 -2.43253e-06 -2.47073e-06 -2.45579e-06 -2.43519e-06 -2.42026e-06 -2.42761e-06 -2.45166e-06 -2.4771e-06 -2.50239e-06 -2.51688e-06 -2.51143e-06 -2.51871e-06 -2.56584e-06 -2.60071e-06 -2.63925e-06 -2.726e-06 -2.87765e-06 -3.09173e-06 -3.52606e-06 -4.22192e-06 -5.24751e-06 -6.77658e-06 -8.97555e-06 -1.19864e-05 -1.59724e-05 -2.1079e-05 -2.73534e-05 -3.48145e-05 -4.35253e-05 -5.34016e-05 -6.45047e-05 -7.70761e-05 -9.16364e-05 -0.000109137 -0.000131018 -0.000159422 -0.000196879 -0.000246297 -0.00031066 -0.000392557 -0.000493839 -0.000615098 -0.000755467 -0.000912347 -0.00108152 -0.00125719 -0.00143257 -0.00160012 -0.00175225 -0.00188168 -0.00198174 -0.00204691 -0.0020728 -0.00205642 -0.00199596 -0.00189089 -0.00174183 -0.00155044 -0.00131939 -0.00105222 -0.000753355 -0.000427799 -8.12695e-05 0.000280106 0.000649992 0.00102154 0.00138808 0.00174284 0.00207939 0.00239162 0.00267382 0.00292084 0.00312821 0.00329213 0.00340983 0.00347948 0.00350041 0.00347318 0.0033996 0.00328271 0.00312649 0.00293577 0.00271576 0.00247197 0.0022099 0.00193494 0.00165232 0.00136708 0.00108426 0.00080881 0.000545525 0.00029887 7.27839e-05 -0.000129663 -0.000306436 -0.000456653 -0.000580722 -0.000680132 -0.00075708 -0.000814344 -0.000854941 -0.000881876 -0.000897848 -0.000905167 -0.000905878 -0.000901472 -0.000893203 -0.000882046 -0.00086859 -0.00085334 -0.000836779 -0.000819173 -0.000800766 -0.000781764 -0.00076233 -0.000742503 -0.000722444 -0.00070224 -0.000681976 -0.00066174 -0.000641517 -0.000621396 -0.00060137 -0.000581532 -0.000561861 -0.000542394 -0.000523133 -0.000504119 -0.000485403 -0.000466931 -0.000448747 -0.000430886 -0.000413398 -0.000396292 -0.000379531 -0.000363203 -0.000347272 -0.000331776 -0.00031675 -0.000302155 -0.000288004 -0.000274363 -0.000261148 -0.000248397 -0.000236108 -0.000224305 -0.000212993 -0.000202088 -0.000191615 -0.000181553 -0.000171899 -0.000162637 -0.000153744 -0.000145226 -0.000137082 -0.000129355 -0.000121945 -0.000114841 -0.000108064 -0.000101601 -9.54201e-05 -8.95238e-05 -8.39023e-05 -7.85359e-05 -7.34516e-05 -6.86235e-05 -6.39722e-05 -5.95782e-05 -5.54065e-05 -5.14299e-05 -4.76388e-05 -4.40197e-05 -4.06372e-05 -3.73954e-05 -3.43804e-05 -3.15645e-05 -2.88683e-05 -2.62685e-05 -2.38268e-05 -2.15224e-05 -1.93917e-05 -1.73781e-05 -1.547e-05 -1.36266e-05 -1.18879e-05 -1.03208e-05 -8.83396e-06 -7.34837e-06 -5.95445e-06 -4.7036e-06 -3.56178e-06 -2.53676e-06 -1.51777e-06 -6.1395e-07 2.23667e-07 1.03752e-06 1.71361e-06 2.39091e-06 3.0951e-06 3.63148e-06 4.11939e-06 4.57081e-06 4.89517e-06 5.25621e-06 5.55894e-06 5.7764e-06 5.95733e-06 6.12829e-06 6.31621e-06 6.50127e-06 6.60074e-06 6.66468e-06 6.66299e-06 6.62046e-06 6.63676e-06 6.57507e-06 6.44772e-06 6.32899e-06 6.14244e-06 5.92303e-06 5.74109e-06 5.47156e-06 5.23041e-06 4.95544e-06 4.68995e-06 4.45714e-06 4.17099e-06 3.76375e-06 3.38209e-06 3.07286e-06 2.77064e-06 2.46143e-06 2.11217e-06 1.78518e-06 1.51264e-06 1.23478e-06 9.85782e-07 7.73114e-07 5.99038e-07 4.67879e-07 3.31462e-07 2.10011e-07 1.4163e-07 9.85796e-08 5.59971e-08 2.25109e-08 0 0 
0 0 5.18599e-08 1.18191e-07 1.86196e-07 2.5361e-07 3.36826e-07 5.0514e-07 7.24146e-07 8.97651e-07 1.10272e-06 1.40226e-06 1.74144e-06 2.13155e-06 2.49967e-06 2.90448e-06 3.43315e-06 3.87195e-06 4.28146e-06 4.70135e-06 5.20943e-06 5.86202e-06 6.31111e-06 6.61752e-06 7.01172e-06 7.54018e-06 7.92954e-06 8.36781e-06 8.70363e-06 9.03044e-06 9.44362e-06 9.6734e-06 9.86758e-06 1.00928e-05 1.00832e-05 1.02012e-05 1.04045e-05 1.04307e-05 1.04503e-05 1.03886e-05 1.02354e-05 1.02057e-05 1.01534e-05 1.00674e-05 9.85278e-06 9.51824e-06 9.27699e-06 8.96346e-06 8.42256e-06 8.0062e-06 7.33614e-06 6.56443e-06 6.04748e-06 5.26871e-06 4.3543e-06 3.51851e-06 2.46491e-06 1.41146e-06 3.41207e-07 -9.79928e-07 -2.42202e-06 -4.03963e-06 -5.58198e-06 -7.14398e-06 -8.94016e-06 -1.09288e-05 -1.29012e-05 -1.49612e-05 -1.72011e-05 -1.96582e-05 -2.23405e-05 -2.51197e-05 -2.80573e-05 -3.10198e-05 -3.42609e-05 -3.78358e-05 -4.15916e-05 -4.55187e-05 -4.97489e-05 -5.4095e-05 -5.87088e-05 -6.3568e-05 -6.8743e-05 -7.41639e-05 -7.97676e-05 -8.57992e-05 -9.21541e-05 -9.87688e-05 -0.000105732 -0.000113006 -0.000120654 -0.000128715 -0.000137135 -0.000145892 -0.000155162 -0.000164984 -0.000175172 -0.000185865 -0.000196942 -0.000208533 -0.000220625 -0.00023325 -0.000246413 -0.000260073 -0.000274482 -0.000289372 -0.000304895 -0.000320923 -0.000337582 -0.000354919 -0.000372737 -0.000391229 -0.000410305 -0.000429939 -0.000450136 -0.000470845 -0.000492037 -0.000513809 -0.00053603 -0.000558732 -0.000581716 -0.000605134 -0.000628977 -0.000653052 -0.000677435 -0.000702094 -0.000726913 -0.000751952 -0.000777011 -0.000802164 -0.000827299 -0.000852536 -0.000877576 -0.000902431 -0.000926845 -0.00095076 -0.000974189 -0.000996764 -0.00101829 -0.00103852 -0.00105708 -0.00107331 -0.00108685 -0.00109686 -0.00110203 -0.00110108 -0.00109234 -0.00107358 -0.00104235 -0.000995913 -0.000931164 -0.000845224 -0.000735568 -0.000600248 -0.000437961 -0.000248227 -3.1754e-05 0.000210195 0.000475343 0.000760782 0.00106319 0.00137869 0.00170282 0.00203082 0.00235717 0.00267579 0.00298011 0.00326344 0.00351866 0.00373928 0.00391908 0.00405292 0.00413639 0.00416642 0.00414113 0.00405978 0.00392282 0.00373183 0.00348956 0.00319964 0.00286709 0.00249753 0.00209748 0.00167439 0.00123622 0.000791054 0.000347383 -8.67395e-05 -0.000503038 -0.000894235 -0.00125337 -0.00157447 -0.00185234 -0.00208293 -0.00226338 -0.00239201 -0.00246842 -0.00249383 -0.00247041 -0.00240193 -0.00229349 -0.00215137 -0.00198242 -0.00179434 -0.00159478 -0.00139145 -0.00119132 -0.00100054 -0.000823985 -0.000665081 -0.000525883 -0.000407193 -0.000308657 -0.00022906 -0.000166441 -0.00011843 -8.25028e-05 -5.6452e-05 -3.79951e-05 -2.53843e-05 -1.69511e-05 -1.14161e-05 -8.10691e-06 -5.99572e-06 -4.6572e-06 -3.92151e-06 -3.57402e-06 -3.36184e-06 -3.23067e-06 -3.06011e-06 -3.00182e-06 -2.96634e-06 -3.00263e-06 -2.98933e-06 -2.94071e-06 -2.97406e-06 -2.96782e-06 -2.88659e-06 -2.95627e-06 -2.97242e-06 -2.88255e-06 -2.83673e-06 -2.78195e-06 -2.70888e-06 -2.70107e-06 -2.63557e-06 -2.66357e-06 -2.73258e-06 -2.74563e-06 -2.76825e-06 -2.77435e-06 -2.86948e-06 -2.89944e-06 -3.01382e-06 -2.96604e-06 -2.8886e-06 -2.69687e-06 -2.71984e-06 -2.78517e-06 -2.73783e-06 -2.67492e-06 -2.67913e-06 -2.67369e-06 -2.70652e-06 -2.72323e-06 -2.6041e-06 -2.53102e-06 -2.5625e-06 -2.48079e-06 -2.5376e-06 -2.58874e-06 -2.68763e-06 -2.6684e-06 -2.63864e-06 -2.5984e-06 -2.59575e-06 -2.5488e-06 -2.57354e-06 -2.65635e-06 -2.67042e-06 -2.59188e-06 -2.63623e-06 -2.72488e-06 -2.78224e-06 -2.72801e-06 -2.72206e-06 -2.7648e-06 -2.86783e-06 -2.98e-06 -2.93207e-06 -2.86433e-06 -2.71577e-06 -2.63812e-06 -2.59169e-06 -2.57636e-06 -2.6682e-06 -2.69215e-06 -2.67739e-06 -2.74097e-06 -2.84964e-06 -2.94661e-06 -2.84995e-06 -2.74162e-06 -2.67821e-06 -2.69273e-06 -2.66841e-06 -2.57698e-06 -2.59421e-06 -2.64339e-06 -2.72302e-06 -2.87183e-06 -2.93872e-06 -2.98564e-06 -2.87218e-06 -2.76713e-06 -2.7224e-06 -2.72791e-06 -2.78384e-06 -2.72892e-06 -2.64125e-06 -2.59658e-06 -2.67674e-06 -2.66756e-06 -2.58773e-06 -2.5579e-06 -2.59347e-06 -2.58475e-06 -2.61537e-06 -2.63805e-06 -2.65864e-06 -2.57226e-06 -2.53638e-06 -2.48946e-06 -2.57714e-06 -2.54759e-06 -2.60966e-06 -2.70198e-06 -2.6583e-06 -2.61617e-06 -2.62815e-06 -2.63149e-06 -2.70017e-06 -2.76326e-06 -2.72622e-06 -2.7288e-06 -2.92882e-06 -3.0002e-06 -3.04443e-06 -2.9418e-06 -2.93202e-06 -2.84697e-06 -2.83255e-06 -2.79247e-06 -2.76959e-06 -2.70396e-06 -2.67851e-06 -2.73894e-06 -2.75048e-06 -2.84219e-06 -2.9137e-06 -2.96586e-06 -3.05799e-06 -3.04532e-06 -2.97789e-06 -3.0595e-06 -3.08421e-06 -3.11377e-06 -3.29673e-06 -3.57843e-06 -4.02862e-06 -4.83315e-06 -6.01838e-06 -7.83315e-06 -1.03561e-05 -1.3881e-05 -1.85161e-05 -2.45071e-05 -3.20006e-05 -4.09404e-05 -5.12528e-05 -6.31632e-05 -7.63704e-05 -9.11576e-05 -0.000108219 -0.000128478 -0.000153779 -0.000186421 -0.000229593 -0.000286955 -0.000362306 -0.000458937 -0.000579191 -0.000723979 -0.000892441 -0.00108163 -0.00128638 -0.00149963 -0.00171297 -0.00191707 -0.00210271 -0.00226078 -0.00238342 -0.00246374 -0.00249648 -0.0024779 -0.00240612 -0.00228036 -0.00210155 -0.00187171 -0.00159398 -0.00127277 -0.000913387 -0.000521793 -0.000104953 0.000329934 0.000774847 0.001222 0.00166306 0.00209009 0.00249525 0.00287105 0.00321071 0.00350813 0.00375775 0.00395515 0.0040968 0.00418056 0.0042055 0.00417225 0.00408299 0.00394125 0.0037521 0.00352137 0.00325555 0.00296126 0.00264537 0.00231408 0.00197376 0.00163042 0.00129002 0.000958438 0.000641549 0.000344781 7.29406e-05 -0.000170135 -0.000381889 -0.000561368 -0.000708812 -0.000826237 -0.000916615 -0.000983288 -0.00102995 -0.00106032 -0.00107782 -0.00108527 -0.00108502 -0.00107898 -0.00106846 -0.00105451 -0.00103812 -0.00101975 -0.000999699 -0.000978486 -0.000956309 -0.000933396 -0.000909952 -0.000886254 -0.000862252 -0.000838023 -0.000813707 -0.000789277 -0.000765116 -0.000741046 -0.000717205 -0.000693486 -0.000670037 -0.000646824 -0.000623852 -0.000601202 -0.000578812 -0.000556762 -0.000535152 -0.000513811 -0.000492841 -0.000472333 -0.000452358 -0.000432815 -0.000413818 -0.000395318 -0.000377324 -0.000359883 -0.00034304 -0.000326637 -0.000310905 -0.000295733 -0.000281044 -0.00026695 -0.000253292 -0.00024034 -0.00022789 -0.000215912 -0.00020443 -0.000193409 -0.000182883 -0.000172739 -0.000163011 -0.000153641 -0.000144762 -0.00013639 -0.000128318 -0.000120582 -0.000113229 -0.000106217 -9.95081e-05 -9.31536e-05 -8.70305e-05 -8.12035e-05 -7.58074e-05 -7.05324e-05 -6.55215e-05 -6.07889e-05 -5.63109e-05 -5.20602e-05 -4.79216e-05 -4.40753e-05 -4.03846e-05 -3.68774e-05 -3.36625e-05 -3.07443e-05 -2.78323e-05 -2.50886e-05 -2.24336e-05 -2.00044e-05 -1.77747e-05 -1.57283e-05 -1.37481e-05 -1.17686e-05 -9.94391e-06 -8.39137e-06 -6.82912e-06 -5.21194e-06 -3.75158e-06 -2.42592e-06 -1.33037e-06 -2.69124e-07 8.16327e-07 1.67429e-06 2.61649e-06 3.42029e-06 3.97503e-06 4.78001e-06 5.50476e-06 5.95131e-06 6.54209e-06 6.88904e-06 7.1922e-06 7.57216e-06 7.84576e-06 7.98631e-06 8.08349e-06 8.16013e-06 8.37864e-06 8.50036e-06 8.53946e-06 8.56311e-06 8.41042e-06 8.34443e-06 8.38153e-06 8.20741e-06 8.06141e-06 7.91046e-06 7.5469e-06 7.29863e-06 7.00024e-06 6.63624e-06 6.28977e-06 5.84189e-06 5.49772e-06 5.26783e-06 4.87107e-06 4.28176e-06 3.84338e-06 3.48727e-06 3.16681e-06 2.79205e-06 2.33352e-06 1.99604e-06 1.69252e-06 1.36168e-06 1.08537e-06 8.31468e-07 6.66123e-07 5.2979e-07 3.42467e-07 2.08712e-07 1.54501e-07 9.86338e-08 3.92745e-08 0 0 