<?xml version="1.0"?>
<VTKFile type="ImageData" version="0.1" byte_order="LittleEndian">
<ImageData WholeExtent="0 599 0 599 0 0" Origin="0 0 0" Spacing="5 5 0">
<Piece Extent="0 599 0 599 0 0">
<PointData Scalars="Amplitude">
<DataArray type="Float32" Name="Amplitude" format="ascii">
0 0 0 0 0 0 0 0 0 0 0 0 0 0 0 0 0 0 0 0 0 0 0 0 0 0 0 0 0 0 0 0 0 0 0 0 0 0 0 0 0 0 0 0 0 0 0 0 0 0 0 0 0 0 0 0 0 0 0 0 0 0 0 0 0 0 0 0 0 0 0 0 0 0 0 0 0 0 0 0 0 0 0 0 0 0 0 0 0 0 0 0 0 0 0 0 0 0 0 0 0 0 0 0 0 0 0 0 0 0 0 0 0 0 0 0 0 0 0 0 0 0 0 0 0 0 0 0 0 0 0 0 0 0 0 0 0 0 0 0 0 0 0 0 0 0 0 0 0 0 0 0 0 0 0 0 0 0 0 0 0 0 0 0 0 0 0 0 0 0 0 0 0 0 0 0 0 0 0 0 0 0 0 0 0 0 0 0 0 0 0 0 0 0 0 0 0 0 0 0 0 0 0 0 0 0 0 0 0 0 0 0 0 0 0 0 0 0 0 0 0 0 0 0 0 0 0 0 0 0 0 0 0 0 0 0 0 0 0 0 0 0 0 0 0 0 0 0 0 0 0 0 0 0 0 0 0 0 0 0 0 0 0 0 0 0 0 0 0 0 0 0 0 0 0 0 0 0 0 0 0 0 0 0 0 0 0 0 0 0 0 0 0 0 0 0 0 0 0 0 0 0 0 0 0 0 0 0 0 0 0 0 0 0 0 0 0 0 0 0 0 0 0 0 0 0 0 0 0 0 0 0 0 0 0 0 0 0 0 0 0 0 0 0 0 0 0 0 0 0 0 0 0 0 0 0 0 0 0 0 0 0 0 0 0 0 0 0 0 0 0 0 0 0 0 0 0 0 0 0 0 0 0 0 0 0 0 0 0 0 0 0 0 0 0 0 0 0 0 0 0 0 0 0 0 0 0 0 0 0 0 0 0 0 0 0 0 0 0 0 0 0 0 0 0 0 0 0 0 0 0 0 0 0 0 0 0 0 0 0 0 0 0 0 0 0 0 0 0 0 0 0 0 0 0 0 0 0 0 0 0 0 0 0 0 0 0 0 0 0 0 0 0 0 0 0 0 0 0 0 0 0 0 0 0 0 0 0 0 0 0 0 0 0 0 0 0 0 0 0 0 0 0 0 0 0 0 0 0 0 0 0 0 0 0 0 0 0 0 0 0 0 0 0 0 0 0 0 0 0 0 0 0 0 0 0 0 0 0 0 0 0 0 0 0 0 0 0 0 0 0 0 0 0 0 0 0 0 0 0 0 0 0 0 0 0 0 0 0 0 0 0 0 0 0 0 0 0 0 0 0 0 0 0 0 0 0 0 0 0 0 0 0 0 0 0 0 0 0 0 
0 0 0 0 0 0 0 0 0 0 0 0 0 0 0 0 0 0 0 0 0 0 0 0 0 0 0 0 0 0 0 0 0 0 0 0 0 0 0 0 0 0 0 0 0 0 0 0 0 0 0 0 0 0 0 0 0 0 0 0 0 0 0 0 0 0 0 0 0 0 0 0 0 0 0 0 0 0 0 0 0 0 0 0 0 0 0 0 0 0 0 0 0 0 0 0 0 0 0 0 0 0 0 0 0 0 0 0 0 0 0 0 0 0 0 0 0 0 0 0 0 0 0 0 0 0 0 0 0 0 0 0 0 0 0 0 0 0 0 0 0 0 0 0 0 0 0 0 0 0 0 0 0 0 0 0 0 0 0 0 0 0 0 0 0 0 0 0 0 0 0 0 0 0 0 0 0 0 0 0 0 0 0 0 0 0 0 0 0 0 0 0 0 0 0 0 0 0 0 0 0 0 0 0 0 0 0 0 0 0 0 0 0 0 0 0 0 0 0 0 0 0 0 0 0 0 0 0 0 0 0 0 0 0 0 0 0 0 0 0 0 0 0 0 0 0 0 0 0 0 0 0 0 0 0 0 0 0 0 0 0 0 0 0 0 0 0 0 0 0 0 0 0 0 0 0 0 0 0 0 0 0 0 0 0 0 0 0 0 0 0 0 0 0 0 0 0 0 0 0 0 0 0 0 0 0 0 0 0 0 0 0 0 0 0 0 0 0 0 0 0 0 0 0 0 0 0 0 0 0 0 0 0 0 0 0 0 0 0 0 0 0 0 0 0 0 0 0 0 0 0 0 0 0 0 0 0 0 0 0 0 0 0 0 0 0 0 0 0 0 0 0 0 0 0 0 0 0 0 0 0 0 0 0 0 0 0 0 0 0 0 0 0 0 0 0 0 0 0 0 0 0 0 0 0 0 0 0 0 0 0 0 0 0 0 0 0 0 0 0 0 0 0 0 0 0 0 0 0 0 0 0 0 0 0 0 0 0 0 0 0 0 0 0 0 0 0 0 0 0 0 0 0 0 0 0 0 0 0 0 0 0 0 0 0 0 0 0 0 0 0 0 0 0 0 0 0 0 0 0 0 0 0 0 0 0 0 0 0 0 0 0 0 0 0 0 0 0 0 0 0 0 0 0 0 0 0 0 0 0 0 0 0 0 0 0 0 0 0 0 0 0 0 0 0 0 0 0 0 0 0 0 0 0 0 0 0 0 0 0 0 0 0 0 0 0 0 0 0 0 0 0 0 0 0 0 0 0 0 0 0 0 0 0 0 0 0 0 0 0 0 0 0 0 0 0 0 0 0 0 0 0 0 0 0 0 0 0 0 0 0 0 0 0 0 0 0 0 0 0 
0 0 0 0 0 0 0 0 0 0 0 0 0 0 0 0 0 0 0 0 0 0 0 0 0 0 0 0 0 0 0 0 0 0 0 0 0 0 0 0 0 0 0 0 0 0 0 0 0 0 0 0 0 0 0 0 0 0 0 0 0 0 0 0 0 0 0 0 0 0 0 0 0 0 0 0 0 0 0 0 0 0 0 0 0 0 0 0 0 0 0 0 0 0 0 0 0 0 0 0 0 0 0 0 0 0 0 0 0 0 0 0 0 0 0 0 0 0 -0 -8.14296e-45 -1.03144e-43 -3.52862e-43 -6.01222e-43 3.82719e-43 5.6485e-42 1.73825e-41 2.2062e-41 -4.29853e-41 -3.05988e-40 -8.00148e-40 -8.0385e-40 2.41717e-39 1.38307e-38 3.36954e-38 3.24287e-38 -9.42568e-38 -5.32086e-37 -1.31392e-36 -1.48458e-36 2.43487e-36 1.70946e-35 4.62667e-35 6.70368e-35 -1.8913e-35 -4.27383e-34 -1.38835e-33 -2.594e-33 -1.86239e-33 6.66947e-33 3.22723e-32 7.84175e-32 1.13748e-31 1.78485e-32 -4.69187e-31 -1.67834e-30 -3.57726e-30 -4.64992e-30 -5.70564e-32 1.97839e-29 6.65069e-29 1.39741e-28 1.92758e-28 7.64139e-29 -5.11216e-28 -1.98056e-27 -4.5339e-27 -7.33583e-27 -7.03078e-27 4.03116e-27 3.83298e-26 1.09036e-25 2.15712e-25 3.14055e-25 2.68969e-25 -1.9409e-25 -1.49391e-24 -4.06442e-24 -7.95874e-24 -1.20512e-23 -1.28091e-23 -2.91127e-24 2.94236e-23 9.86859e-23 2.15267e-22 3.70503e-22 5.11442e-22 5.06848e-22 1.13748e-22 -1.03371e-21 -3.37504e-21 -7.26012e-21 -1.26118e-20 -1.83715e-20 -2.17414e-20 -1.73555e-20 3.3098e-21 5.17279e-20 1.40508e-19 2.78977e-19 4.65178e-19 6.73712e-19 8.39827e-19 8.4188e-19 4.86765e-19 -4.93943e-19 -2.42613e-18 -5.63989e-18 -1.03664e-17 -1.65728e-17 -2.37305e-17 -3.05258e-17 -3.4542e-17 -3.19695e-17 -1.74323e-17 1.59494e-17 7.6114e-17 1.7107e-16 3.07215e-16 4.86854e-16 7.04886e-16 9.44754e-16 1.17392e-15 1.33935e-15 1.36362e-15 1.14262e-15 5.45937e-16 -5.79029e-16 -2.39786e-15 -5.07389e-15 -8.74619e-15 -1.35004e-14 -1.93332e-14 -2.61107e-14 -3.3524e-14 -4.10441e-14 -4.78805e-14 -5.29471e-14 -5.48422e-14 -5.18459e-14 -4.19416e-14 -2.28642e-14 7.82094e-15 5.26067e-14 1.13901e-13 1.93855e-13 2.94168e-13 4.15873e-13 5.59115e-13 7.22935e-13 9.05063e-13 1.10175e-12 1.30762e-12 1.51559e-12 1.71686e-12 1.90092e-12 2.0557e-12 2.16775e-12 2.22246e-12 2.20445e-12 2.0979e-12 1.88695e-12 1.55623e-12 1.09122e-12 4.78778e-13 -2.92466e-13 -1.23171e-12 -2.34564e-12 -3.63816e-12 -5.11021e-12 -6.75964e-12 -8.58121e-12 -1.05666e-11 -1.27048e-11 -1.49818e-11 -1.73815e-11 -1.98857e-11 -2.24747e-11 -2.51275e-11 -2.78225e-11 -3.05375e-11 -3.32507e-11 -3.59408e-11 -3.85874e-11 -4.1171e-11 -4.36739e-11 -4.60799e-11 -4.83744e-11 -5.05448e-11 -5.25805e-11 -5.44724e-11 -5.62132e-11 -5.77972e-11 -5.92202e-11 -6.04791e-11 -6.15718e-11 -6.24971e-11 -6.32543e-11 -6.38432e-11 -6.42636e-11 -6.45159e-11 -6.46e-11 -6.45159e-11 -6.42636e-11 -6.38432e-11 -6.32543e-11 -6.24971e-11 -6.15718e-11 -6.04791e-11 -5.92202e-11 -5.77972e-11 -5.62132e-11 -5.44724e-11 -5.25805e-11 -5.05448e-11 -4.83744e-11 -4.60799e-11 -4.36739e-11 -4.1171e-11 -3.85874e-11 -3.59408e-11 -3.32507e-11 -3.05375e-11 -2.78225e-11 -2.51275e-11 -2.24747e-11 -1.98857e-11 -1.73815e-11 -1.49818e-11 -1.27048e-11 -1.05666e-11 -8.58121e-12 -6.75964e-12 -5.11021e-12 -3.63816e-12 -2.34564e-12 -1.23171e-12 -2.92466e-13 4.78778e-13 1.09122e-12 1.55623e-12 1.88695e-12 2.0979e-12 2.20445e-12 2.22246e-12 2.16775e-12 2.0557e-12 1.90092e-12 1.71686e-12 1.51559e-12 1.30762e-12 1.10175e-12 9.05063e-13 7.22935e-13 5.59115e-13 4.15873e-13 2.94168e-13 1.93855e-13 1.13901e-13 5.26067e-14 7.82094e-15 -2.28642e-14 -4.19416e-14 -5.18459e-14 -5.48422e-14 -5.29471e-14 -4.78805e-14 -4.10441e-14 -3.3524e-14 -2.61107e-14 -1.93332e-14 -1.35004e-14 -8.74619e-15 -5.07389e-15 -2.39786e-15 -5.79029e-16 5.45937e-16 1.14262e-15 1.36362e-15 1.33935e-15 1.17392e-15 9.44754e-16 7.04886e-16 4.86854e-16 3.07215e-16 1.7107e-16 7.6114e-17 1.59494e-17 -1.74323e-17 -3.19695e-17 -3.4542e-17 -3.05258e-17 -2.37305e-17 -1.65728e-17 -1.03664e-17 -5.63989e-18 -2.42613e-18 -4.93943e-19 4.86765e-19 8.4188e-19 8.39827e-19 6.73712e-19 4.65178e-19 2.78977e-19 1.40508e-19 5.17279e-20 3.3098e-21 -1.73555e-20 -2.17414e-20 -1.83715e-20 -1.26118e-20 -7.26012e-21 -3.37504e-21 -1.03371e-21 1.13748e-22 5.06848e-22 5.11442e-22 3.70503e-22 2.15267e-22 9.86859e-23 2.94236e-23 -2.91127e-24 -1.28091e-23 -1.20512e-23 -7.95874e-24 -4.06442e-24 -1.49391e-24 -1.9409e-25 2.68969e-25 3.14055e-25 2.15712e-25 1.09036e-25 3.83298e-26 4.03116e-27 -7.03078e-27 -7.33583e-27 -4.5339e-27 -1.98056e-27 -5.11216e-28 7.64139e-29 1.92758e-28 1.39741e-28 6.65069e-29 1.97839e-29 -5.70564e-32 -4.64992e-30 -3.57726e-30 -1.67834e-30 -4.69187e-31 1.78485e-32 1.13748e-31 7.84175e-32 3.22723e-32 6.66947e-33 -1.86239e-33 -2.594e-33 -1.38835e-33 -4.27383e-34 -1.8913e-35 6.70368e-35 4.62667e-35 1.70946e-35 2.43487e-36 -1.48458e-36 -1.31392e-36 -5.32086e-37 -9.42568e-38 3.24287e-38 3.36954e-38 1.38307e-38 2.41717e-39 -8.0385e-40 -8.00148e-40 -3.05988e-40 -4.29853e-41 2.2062e-41 1.73825e-41 5.6485e-42 3.82719e-43 -6.01222e-43 -3.52862e-43 -1.03144e-43 -8.14296e-45 -0 0 0 0 0 0 0 0 0 0 0 0 0 0 0 0 0 0 0 0 0 0 0 0 0 0 0 0 0 0 0 0 0 0 0 0 0 0 0 0 0 0 0 0 0 0 0 0 0 0 0 0 0 0 0 0 0 0 0 0 0 0 0 0 0 0 0 0 0 0 0 0 0 0 0 0 0 0 0 0 0 0 0 0 0 0 0 0 0 0 0 0 0 0 0 0 0 0 0 0 0 0 0 0 0 0 0 0 0 0 0 0 0 0 0 0 0 0 
0 0 0 0 0 0 0 0 0 0 0 0 0 0 0 0 0 0 0 0 0 0 0 0 0 0 0 0 0 0 0 0 0 0 0 0 0 0 0 0 0 0 0 0 0 0 0 0 0 0 0 0 0 0 0 0 0 0 0 0 0 0 0 0 0 0 0 0 0 0 0 0 0 0 0 0 0 0 0 0 0 0 0 0 0 0 0 0 0 0 0 0 0 0 0 0 0 0 0 0 0 0 0 0 0 0 0 0 0 0 0 0 0 0 0 0 0 -9.63371e-46 -3.00361e-44 -2.00549e-43 -6.74624e-43 -1.04588e-42 1.09383e-42 1.14266e-41 3.26596e-41 3.47848e-41 -1.06186e-40 -6.20896e-40 -1.48734e-39 -1.11084e-39 5.9311e-39 2.83653e-38 6.25162e-38 4.16717e-38 -2.43302e-37 -1.11756e-36 -2.4737e-36 -2.05614e-36 7.29481e-36 3.75468e-35 9.02573e-35 1.05786e-34 -1.27974e-34 -1.02091e-33 -2.87142e-33 -4.60981e-33 -1.12576e-33 1.95728e-32 7.3164e-32 1.55313e-31 1.78304e-31 -1.30599e-31 -1.28261e-30 -3.7623e-30 -6.94056e-30 -6.66643e-30 8.03363e-30 5.58471e-29 1.52956e-28 2.77017e-28 2.91937e-28 -1.54513e-28 -1.67517e-27 -4.91122e-27 -9.64822e-27 -1.28817e-26 -5.87576e-27 2.83519e-26 1.12946e-25 2.62603e-25 4.45822e-25 5.16795e-25 1.27546e-25 -1.32721e-24 -4.61012e-24 -1.01803e-23 -1.71196e-23 -2.12881e-23 -1.29432e-23 2.50931e-23 1.16253e-22 2.81874e-22 5.20272e-22 7.68527e-22 8.47155e-22 3.9959e-22 -1.14113e-21 -4.49773e-21 -1.03153e-20 -1.86409e-20 -2.80284e-20 -3.42681e-20 -2.89378e-20 1.71294e-21 7.65913e-20 2.16872e-19 4.3858e-19 7.38833e-19 1.07462e-18 1.33476e-18 1.30898e-18 6.62584e-19 -1.06857e-18 -4.44205e-18 -1.00057e-17 -1.81001e-17 -2.85447e-17 -4.02017e-17 -5.04373e-17 -5.45484e-17 -4.52695e-17 -1.25482e-17 5.61653e-17 1.74816e-16 3.56517e-16 6.09903e-16 9.33904e-16 1.31094e-15 1.69883e-15 2.02213e-15 2.16395e-15 1.95992e-15 1.19631e-15 -3.85271e-16 -3.07416e-15 -7.16527e-15 -1.29203e-14 -2.05143e-14 -2.99677e-14 -4.10652e-14 -5.32669e-14 -6.56147e-14 -7.66445e-14 -8.43132e-14 -8.59519e-14 -7.82566e-14 -5.73306e-14 -1.87864e-14 4.20812e-14 1.30048e-13 2.49636e-13 4.04724e-13 5.98088e-13 8.30901e-13 1.10221e-12 1.40844e-12 1.74284e-12 2.09515e-12 2.45118e-12 2.7927e-12 3.09732e-12 3.33863e-12 3.48652e-12 3.50768e-12 3.36626e-12 3.02475e-12 2.44495e-12 1.58912e-12 4.21127e-13 -1.09231e-12 -2.9804e-12 -5.26722e-12 -7.97058e-12 -1.11013e-11 -1.46624e-11 -1.86487e-11 -2.30467e-11 -2.78346e-11 -3.29825e-11 -3.84532e-11 -4.42025e-11 -5.01809e-11 -5.63342e-11 -6.26051e-11 -6.89343e-11 -7.5262e-11 -8.15295e-11 -8.76802e-11 -9.36613e-11 -9.94241e-11 -1.04926e-10 -1.1013e-10 -1.15007e-10 -1.19534e-10 -1.23696e-10 -1.27485e-10 -1.30899e-10 -1.33945e-10 -1.36632e-10 -1.38978e-10 -1.41e-10 -1.42724e-10 -1.44173e-10 -1.45373e-10 -1.46351e-10 -1.4713e-10 -1.47734e-10 -1.48182e-10 -1.4849e-10 -1.4867e-10 -1.48729e-10 -1.4867e-10 -1.4849e-10 -1.48182e-10 -1.47734e-10 -1.4713e-10 -1.46351e-10 -1.45373e-10 -1.44173e-10 -1.42724e-10 -1.41e-10 -1.38978e-10 -1.36632e-10 -1.33945e-10 -1.30899e-10 -1.27485e-10 -1.23696e-10 -1.19534e-10 -1.15007e-10 -1.1013e-10 -1.04926e-10 -9.94241e-11 -9.36613e-11 -8.76802e-11 -8.15295e-11 -7.5262e-11 -6.89343e-11 -6.26051e-11 -5.63342e-11 -5.01809e-11 -4.42025e-11 -3.84532e-11 -3.29825e-11 -2.78346e-11 -2.30467e-11 -1.86487e-11 -1.46624e-11 -1.11013e-11 -7.97058e-12 -5.26722e-12 -2.9804e-12 -1.09231e-12 4.21127e-13 1.58912e-12 2.44495e-12 3.02475e-12 3.36626e-12 3.50768e-12 3.48652e-12 3.33863e-12 3.09732e-12 2.7927e-12 2.45118e-12 2.09515e-12 1.74284e-12 1.40844e-12 1.10221e-12 8.30901e-13 5.98088e-13 4.04724e-13 2.49636e-13 1.30048e-13 4.20812e-14 -1.87864e-14 -5.73306e-14 -7.82566e-14 -8.59519e-14 -8.43132e-14 -7.66445e-14 -6.56147e-14 -5.32669e-14 -4.10652e-14 -2.99677e-14 -2.05143e-14 -1.29203e-14 -7.16527e-15 -3.07416e-15 -3.85271e-16 1.19631e-15 1.95992e-15 2.16395e-15 2.02213e-15 1.69883e-15 1.31094e-15 9.33904e-16 6.09903e-16 3.56517e-16 1.74816e-16 5.61653e-17 -1.25482e-17 -4.52695e-17 -5.45484e-17 -5.04373e-17 -4.02017e-17 -2.85447e-17 -1.81001e-17 -1.00057e-17 -4.44205e-18 -1.06857e-18 6.62584e-19 1.30898e-18 1.33476e-18 1.07462e-18 7.38833e-19 4.3858e-19 2.16872e-19 7.65913e-20 1.71294e-21 -2.89378e-20 -3.42681e-20 -2.80284e-20 -1.86409e-20 -1.03153e-20 -4.49773e-21 -1.14113e-21 3.9959e-22 8.47155e-22 7.68527e-22 5.20272e-22 2.81874e-22 1.16253e-22 2.50931e-23 -1.29432e-23 -2.12881e-23 -1.71196e-23 -1.01803e-23 -4.61012e-24 -1.32721e-24 1.27546e-25 5.16795e-25 4.45822e-25 2.62603e-25 1.12946e-25 2.83519e-26 -5.87576e-27 -1.28817e-26 -9.64822e-27 -4.91122e-27 -1.67517e-27 -1.54513e-28 2.91937e-28 2.77017e-28 1.52956e-28 5.58471e-29 8.03363e-30 -6.66643e-30 -6.94056e-30 -3.7623e-30 -1.28261e-30 -1.30599e-31 1.78304e-31 1.55313e-31 7.3164e-32 1.95728e-32 -1.12576e-33 -4.60981e-33 -2.87142e-33 -1.02091e-33 -1.27974e-34 1.05786e-34 9.02573e-35 3.75468e-35 7.29481e-36 -2.05614e-36 -2.4737e-36 -1.11756e-36 -2.43302e-37 4.16717e-38 6.25162e-38 2.83653e-38 5.9311e-39 -1.11084e-39 -1.48734e-39 -6.20896e-40 -1.06186e-40 3.47848e-41 3.26596e-41 1.14266e-41 1.09383e-42 -1.04588e-42 -6.74624e-43 -2.00549e-43 -3.00361e-44 -9.63371e-46 0 0 0 0 0 0 0 0 0 0 0 0 0 0 0 0 0 0 0 0 0 0 0 0 0 0 0 0 0 0 0 0 0 0 0 0 0 0 0 0 0 0 0 0 0 0 0 0 0 0 0 0 0 0 0 0 0 0 0 0 0 0 0 0 0 0 0 0 0 0 0 0 0 0 0 0 0 0 0 0 0 0 0 0 0 0 0 0 0 0 0 0 0 0 0 0 0 0 0 0 0 0 0 0 0 0 0 0 0 0 0 0 0 0 0 0 
0 0 0 0 0 0 0 0 0 0 0 0 0 0 0 0 0 0 0 0 0 0 0 0 0 0 0 0 0 0 0 0 0 0 0 0 0 0 0 0 0 0 0 0 0 0 0 0 0 0 0 0 0 0 0 0 0 0 0 0 0 0 0 0 0 0 0 0 0 0 0 0 0 0 0 0 0 0 0 0 0 0 0 0 0 0 0 0 0 0 0 0 0 0 0 0 0 0 0 0 0 0 0 0 0 0 0 0 0 0 0 0 0 0 0 0 0 -1.36441e-44 -1.85559e-43 -8.20008e-43 -1.85968e-42 -6.50821e-43 1.12577e-41 4.46761e-41 7.78966e-41 -4.01585e-41 -6.89143e-40 -2.17688e-39 -3.05636e-39 3.72822e-39 3.3424e-38 9.43283e-38 1.20146e-37 -1.69865e-37 -1.3468e-36 -3.71479e-36 -4.98178e-36 4.49449e-36 4.4869e-35 1.31547e-34 2.06799e-34 -9.57611e-36 -1.16628e-33 -4.00747e-33 -7.73026e-33 -5.86571e-33 1.9431e-32 9.6664e-32 2.35927e-31 3.36619e-31 1.63127e-32 -1.53863e-30 -5.31283e-30 -1.0977e-29 -1.31819e-29 4.23675e-30 7.17888e-29 2.22454e-28 4.3996e-28 5.404e-28 -5.91864e-30 -2.19428e-27 -7.20844e-27 -1.5123e-26 -2.18459e-26 -1.41575e-26 3.51388e-26 1.65434e-25 4.06821e-25 7.20403e-25 8.8592e-25 3.50025e-25 -1.88249e-24 -7.1129e-24 -1.62185e-23 -2.78867e-23 -3.55138e-23 -2.31189e-23 3.79197e-23 1.87101e-22 4.60834e-22 8.5685e-22 1.26876e-21 1.39111e-21 6.16224e-22 -2.01975e-21 -7.73369e-21 -1.75752e-20 -3.15009e-20 -4.67965e-20 -5.58689e-20 -4.37906e-20 1.34345e-20 1.48131e-19 3.95139e-19 7.7774e-19 1.28224e-18 1.8197e-18 2.17673e-18 1.96364e-18 5.76937e-19 -2.79582e-18 -9.08995e-18 -1.91496e-17 -3.33392e-17 -5.09479e-17 -6.93878e-17 -8.3246e-17 -8.33321e-17 -5.59727e-17 1.70831e-17 1.57669e-16 3.88569e-16 7.28702e-16 1.18568e-15 1.74555e-15 2.35998e-15 2.9317e-15 3.29984e-15 3.22759e-15 2.39556e-15 4.04893e-16 -3.20528e-15 -8.92142e-15 -1.71962e-14 -2.8363e-14 -4.25246e-14 -5.94166e-14 -7.82525e-14 -9.75601e-14 -1.15022e-13 -1.27341e-13 -1.30146e-13 -1.17964e-13 -8.42908e-14 -2.17643e-14 7.75289e-14 2.21603e-13 4.17979e-13 6.7295e-13 9.90725e-13 1.37249e-12 1.81538e-12 2.31155e-12 2.84715e-12 3.40157e-12 3.94682e-12 4.44711e-12 4.85881e-12 5.13074e-12 5.20481e-12 5.01707e-12 4.49916e-12 3.58004e-12 2.18814e-12 2.5362e-13 -2.28915e-12 -5.49903e-12 -9.42571e-12 -1.41073e-11 -1.95683e-11 -2.58179e-11 -3.28485e-11 -4.06354e-11 -4.9136e-11 -5.82902e-11 -6.80215e-11 -7.82385e-11 -8.88363e-11 -9.96994e-11 -1.10704e-10 -1.21722e-10 -1.32622e-10 -1.43275e-10 -1.53556e-10 -1.63348e-10 -1.72545e-10 -1.81053e-10 -1.88793e-10 -1.95704e-10 -2.01742e-10 -2.06883e-10 -2.1112e-10 -2.14467e-10 -2.16953e-10 -2.18629e-10 -2.19555e-10 -2.19807e-10 -2.19473e-10 -2.18648e-10 -2.17431e-10 -2.15928e-10 -2.14243e-10 -2.12476e-10 -2.10724e-10 -2.09077e-10 -2.07614e-10 -2.06402e-10 -2.05497e-10 -2.04937e-10 -2.04748e-10 -2.04937e-10 -2.05497e-10 -2.06402e-10 -2.07614e-10 -2.09077e-10 -2.10724e-10 -2.12476e-10 -2.14243e-10 -2.15928e-10 -2.17431e-10 -2.18648e-10 -2.19473e-10 -2.19807e-10 -2.19555e-10 -2.18629e-10 -2.16953e-10 -2.14467e-10 -2.1112e-10 -2.06883e-10 -2.01742e-10 -1.95704e-10 -1.88793e-10 -1.81053e-10 -1.72545e-10 -1.63348e-10 -1.53556e-10 -1.43275e-10 -1.32622e-10 -1.21722e-10 -1.10704e-10 -9.96994e-11 -8.88363e-11 -7.82385e-11 -6.80215e-11 -5.82902e-11 -4.9136e-11 -4.06354e-11 -3.28485e-11 -2.58179e-11 -1.95683e-11 -1.41073e-11 -9.42571e-12 -5.49903e-12 -2.28915e-12 2.5362e-13 2.18814e-12 3.58004e-12 4.49916e-12 5.01707e-12 5.20481e-12 5.13074e-12 4.85881e-12 4.44711e-12 3.94682e-12 3.40157e-12 2.84715e-12 2.31155e-12 1.81538e-12 1.37249e-12 9.90725e-13 6.7295e-13 4.17979e-13 2.21603e-13 7.75289e-14 -2.17643e-14 -8.42908e-14 -1.17964e-13 -1.30146e-13 -1.27341e-13 -1.15022e-13 -9.75601e-14 -7.82525e-14 -5.94166e-14 -4.25246e-14 -2.8363e-14 -1.71962e-14 -8.92142e-15 -3.20528e-15 4.04893e-16 2.39556e-15 3.22759e-15 3.29984e-15 2.9317e-15 2.35998e-15 1.74555e-15 1.18568e-15 7.28702e-16 3.88569e-16 1.57669e-16 1.70831e-17 -5.59727e-17 -8.33321e-17 -8.3246e-17 -6.93878e-17 -5.09479e-17 -3.33392e-17 -1.91496e-17 -9.08995e-18 -2.79582e-18 5.76937e-19 1.96364e-18 2.17673e-18 1.8197e-18 1.28224e-18 7.7774e-19 3.95139e-19 1.48131e-19 1.34345e-20 -4.37906e-20 -5.58689e-20 -4.67965e-20 -3.15009e-20 -1.75752e-20 -7.73369e-21 -2.01975e-21 6.16224e-22 1.39111e-21 1.26876e-21 8.5685e-22 4.60834e-22 1.87101e-22 3.79197e-23 -2.31189e-23 -3.55138e-23 -2.78867e-23 -1.62185e-23 -7.1129e-24 -1.88249e-24 3.50025e-25 8.8592e-25 7.20403e-25 4.06821e-25 1.65434e-25 3.51388e-26 -1.41575e-26 -2.18459e-26 -1.5123e-26 -7.20844e-27 -2.19428e-27 -5.91864e-30 5.404e-28 4.3996e-28 2.22454e-28 7.17888e-29 4.23675e-30 -1.31819e-29 -1.0977e-29 -5.31283e-30 -1.53863e-30 1.63127e-32 3.36619e-31 2.35927e-31 9.6664e-32 1.9431e-32 -5.86571e-33 -7.73026e-33 -4.00747e-33 -1.16628e-33 -9.57611e-36 2.06799e-34 1.31547e-34 4.4869e-35 4.49449e-36 -4.98178e-36 -3.71479e-36 -1.3468e-36 -1.69865e-37 1.20146e-37 9.43283e-38 3.3424e-38 3.72822e-39 -3.05636e-39 -2.17688e-39 -6.89143e-40 -4.01585e-41 7.78966e-41 4.46761e-41 1.12577e-41 -6.50821e-43 -1.85968e-42 -8.20008e-43 -1.85559e-43 -1.36441e-44 0 0 0 0 0 0 0 0 0 0 0 0 0 0 0 0 0 0 0 0 0 0 0 0 0 0 0 0 0 0 0 0 0 0 0 0 0 0 0 0 0 0 0 0 0 0 0 0 0 0 0 0 0 0 0 0 0 0 0 0 0 0 0 0 0 0 0 0 0 0 0 0 0 0 0 0 0 0 0 0 0 0 0 0 0 0 0 0 0 0 0 0 0 0 0 0 0 0 0 0 0 0 0 0 0 0 0 0 0 0 0 0 0 0 0 0 
0 0 0 0 0 0 0 0 0 0 0 0 0 0 0 0 0 0 0 0 0 0 0 0 0 0 0 0 0 0 0 0 0 0 0 0 0 0 0 0 0 0 0 0 0 0 0 0 0 0 0 0 0 0 0 0 0 0 0 0 0 0 0 0 0 0 0 0 0 0 0 0 0 0 0 0 0 0 0 0 0 0 0 0 0 0 0 0 0 0 0 0 0 0 0 0 0 0 0 0 0 0 0 0 0 0 0 0 0 0 0 0 0 0 0 -0 -3.82982e-44 -3.85718e-43 -1.35548e-42 -2.25686e-42 1.92449e-42 2.33989e-41 6.8982e-41 7.55843e-41 -2.25667e-40 -1.33812e-39 -3.19189e-39 -2.17197e-39 1.38577e-38 6.36647e-38 1.34915e-37 6.67184e-38 -6.22214e-37 -2.61705e-36 -5.39872e-36 -3.13307e-36 2.12556e-35 9.31283e-35 2.03515e-34 1.815e-34 -5.08038e-34 -2.77505e-33 -6.89942e-33 -9.12344e-33 4.69489e-33 6.35015e-32 1.952e-31 3.535e-31 2.5071e-31 -8.57329e-31 -4.12561e-30 -1.00247e-29 -1.49807e-29 -5.1513e-30 4.96175e-29 1.89684e-28 4.21677e-28 6.02514e-28 2.41757e-28 -1.68046e-27 -6.54469e-27 -1.48891e-26 -2.32577e-26 -1.86725e-26 2.74666e-26 1.59172e-25 4.14549e-25 7.61156e-25 9.68638e-25 4.29999e-25 -1.97561e-24 -7.73938e-24 -1.78726e-23 -3.08018e-23 -3.86345e-23 -2.22532e-23 5.24211e-23 2.31537e-22 5.54512e-22 1.00735e-21 1.43836e-21 1.43921e-21 2.24136e-22 -3.40921e-21 -1.0886e-20 -2.32102e-20 -3.96305e-20 -5.54655e-20 -5.92216e-20 -2.97062e-20 6.52879e-20 2.66029e-19 6.09856e-19 1.10784e-18 1.70567e-18 2.22836e-18 2.31512e-18 1.36082e-18 -1.50529e-18 -7.35724e-18 -1.72664e-17 -3.18864e-17 -5.07747e-17 -7.14328e-17 -8.81204e-17 -9.06054e-17 -6.31643e-17 1.56869e-17 1.72078e-16 4.33512e-16 8.22628e-16 1.34735e-15 1.98706e-15 2.67525e-15 3.27967e-15 3.58266e-15 3.26532e-15 1.90066e-15 -1.03763e-15 -6.1438e-15 -1.40187e-14 -2.51726e-14 -3.98874e-14 -5.80395e-14 -7.88866e-14 -1.00832e-13 -1.21182e-13 -1.35926e-13 -1.39568e-13 -1.25055e-13 -8.38316e-14 -6.07838e-15 1.18846e-13 3.01715e-13 5.52496e-13 8.79153e-13 1.28622e-12 1.77321e-12 2.33285e-12 2.94938e-12 3.59687e-12 4.23777e-12 4.82182e-12 5.28538e-12 5.55143e-12 5.5302e-12 5.12054e-12 4.21215e-12 2.68862e-12 4.31062e-13 -2.67747e-12 -6.74706e-12 -1.18758e-11 -1.81443e-11 -2.56106e-11 -3.43054e-11 -4.42271e-11 -5.53392e-11 -6.75671e-11 -8.07968e-11 -9.48749e-11 -1.0961e-10 -1.24774e-10 -1.40109e-10 -1.55328e-10 -1.70124e-10 -1.84178e-10 -1.97163e-10 -2.08754e-10 -2.18636e-10 -2.26515e-10 -2.3212e-10 -2.35215e-10 -2.35603e-10 -2.33132e-10 -2.27703e-10 -2.19265e-10 -2.07825e-10 -1.93444e-10 -1.76241e-10 -1.56382e-10 -1.34089e-10 -1.09628e-10 -8.33053e-11 -5.54636e-11 -2.64758e-11 3.26316e-12 3.33419e-11 6.33406e-11 9.28369e-11 1.21414e-10 1.48667e-10 1.74209e-10 1.97676e-10 2.18736e-10 2.37087e-10 2.52471e-10 2.64668e-10 2.73506e-10 2.7886e-10 2.80652e-10 2.7886e-10 2.73506e-10 2.64668e-10 2.52471e-10 2.37087e-10 2.18736e-10 1.97676e-10 1.74209e-10 1.48667e-10 1.21414e-10 9.28369e-11 6.33406e-11 3.33419e-11 3.26316e-12 -2.64758e-11 -5.54636e-11 -8.33053e-11 -1.09628e-10 -1.34089e-10 -1.56382e-10 -1.76241e-10 -1.93444e-10 -2.07825e-10 -2.19265e-10 -2.27703e-10 -2.33132e-10 -2.35603e-10 -2.35215e-10 -2.3212e-10 -2.26515e-10 -2.18636e-10 -2.08754e-10 -1.97163e-10 -1.84178e-10 -1.70124e-10 -1.55328e-10 -1.40109e-10 -1.24774e-10 -1.0961e-10 -9.48749e-11 -8.07968e-11 -6.75671e-11 -5.53392e-11 -4.42271e-11 -3.43054e-11 -2.56106e-11 -1.81443e-11 -1.18758e-11 -6.74706e-12 -2.67747e-12 4.31062e-13 2.68862e-12 4.21215e-12 5.12054e-12 5.5302e-12 5.55143e-12 5.28538e-12 4.82182e-12 4.23777e-12 3.59687e-12 2.94938e-12 2.33285e-12 1.77321e-12 1.28622e-12 8.79153e-13 5.52496e-13 3.01715e-13 1.18846e-13 -6.07838e-15 -8.38316e-14 -1.25055e-13 -1.39568e-13 -1.35926e-13 -1.21182e-13 -1.00832e-13 -7.88866e-14 -5.80395e-14 -3.98874e-14 -2.51726e-14 -1.40187e-14 -6.1438e-15 -1.03763e-15 1.90066e-15 3.26532e-15 3.58266e-15 3.27967e-15 2.67525e-15 1.98706e-15 1.34735e-15 8.22628e-16 4.33512e-16 1.72078e-16 1.56869e-17 -6.31643e-17 -9.06054e-17 -8.81204e-17 -7.14328e-17 -5.07747e-17 -3.18864e-17 -1.72664e-17 -7.35724e-18 -1.50529e-18 1.36082e-18 2.31512e-18 2.22836e-18 1.70567e-18 1.10784e-18 6.09856e-19 2.66029e-19 6.52879e-20 -2.97062e-20 -5.92216e-20 -5.54655e-20 -3.96305e-20 -2.32102e-20 -1.0886e-20 -3.40921e-21 2.24136e-22 1.43921e-21 1.43836e-21 1.00735e-21 5.54512e-22 2.31537e-22 5.24211e-23 -2.22532e-23 -3.86345e-23 -3.08018e-23 -1.78726e-23 -7.73938e-24 -1.97561e-24 4.29999e-25 9.68638e-25 7.61156e-25 4.14549e-25 1.59172e-25 2.74666e-26 -1.86725e-26 -2.32577e-26 -1.48891e-26 -6.54469e-27 -1.68046e-27 2.41757e-28 6.02514e-28 4.21677e-28 1.89684e-28 4.96175e-29 -5.1513e-30 -1.49807e-29 -1.00247e-29 -4.12561e-30 -8.57329e-31 2.5071e-31 3.535e-31 1.952e-31 6.35015e-32 4.69489e-33 -9.12344e-33 -6.89942e-33 -2.77505e-33 -5.08038e-34 1.815e-34 2.03515e-34 9.31283e-35 2.12556e-35 -3.13307e-36 -5.39872e-36 -2.61705e-36 -6.22214e-37 6.67184e-38 1.34915e-37 6.36647e-38 1.38577e-38 -2.17197e-39 -3.19189e-39 -1.33812e-39 -2.25667e-40 7.55843e-41 6.8982e-41 2.33989e-41 1.92449e-42 -2.25686e-42 -1.35548e-42 -3.85718e-43 -3.82982e-44 -0 0 0 0 0 0 0 0 0 0 0 0 0 0 0 0 0 0 0 0 0 0 0 0 0 0 0 0 0 0 0 0 0 0 0 0 0 0 0 0 0 0 0 0 0 0 0 0 0 0 0 0 0 0 0 0 0 0 0 0 0 0 0 0 0 0 0 0 0 0 0 0 0 0 0 0 0 0 0 0 0 0 0 0 0 0 0 0 0 0 0 0 0 0 0 0 0 0 0 0 0 0 0 0 0 0 0 0 0 0 0 0 0 0 0 
0 0 0 0 0 0 0 0 0 0 0 0 0 0 0 0 0 0 0 0 0 0 0 0 0 0 0 0 0 0 0 0 0 0 0 0 0 0 0 0 0 0 0 0 0 0 0 0 0 0 0 0 0 0 0 0 0 0 0 0 0 0 0 0 0 0 0 0 0 0 0 0 0 0 0 0 0 0 0 0 0 0 0 0 0 0 0 0 0 0 0 0 0 0 0 0 0 0 0 0 0 0 0 0 0 0 0 0 0 0 0 0 0 0 -1.37103e-45 -1.13795e-43 -7.19788e-43 -2.08944e-42 -2.31429e-42 7.37063e-42 4.32723e-41 9.90963e-41 3.54273e-41 -5.90941e-40 -2.35739e-39 -4.23912e-39 1.2403e-39 3.33147e-38 1.09947e-37 1.69524e-37 -1.15906e-37 -1.49828e-36 -4.56354e-36 -6.78541e-36 4.04385e-36 5.5173e-35 1.69911e-34 2.73692e-34 -1.89793e-35 -1.61659e-33 -5.53693e-33 -1.04206e-32 -6.33703e-33 3.33711e-32 1.48639e-31 3.41715e-31 4.25226e-31 -2.39674e-31 -2.90421e-30 -8.77488e-30 -1.61547e-29 -1.40138e-29 2.65889e-29 1.53117e-28 3.98006e-28 6.68561e-28 5.29306e-28 -1.05839e-27 -5.7218e-27 -1.46433e-26 -2.53625e-26 -2.55397e-26 1.49974e-26 1.4691e-25 4.21919e-25 8.23821e-25 1.12206e-24 6.52e-25 -1.87815e-24 -8.27097e-24 -1.98827e-23 -3.51085e-23 -4.47717e-23 -2.59088e-23 6.31e-23 2.78939e-22 6.68985e-22 1.21015e-21 1.69811e-21 1.59228e-21 -1.35722e-22 -5.02992e-21 -1.48386e-20 -3.05591e-20 -5.05185e-20 -6.73258e-20 -6.4e-20 -1.04611e-20 1.37086e-19 4.29719e-19 9.06737e-19 1.55805e-18 2.26419e-18 2.71615e-18 2.32871e-18 1.78377e-19 -4.98088e-18 -1.45477e-17 -2.96571e-17 -5.04265e-17 -7.48091e-17 -9.70801e-17 -1.06122e-16 -8.38828e-17 -4.62861e-18 1.64108e-16 4.57768e-16 9.06954e-16 1.52449e-15 2.2867e-15 3.10922e-15 3.81897e-15 4.12592e-15 3.60038e-15 1.66399e-15 -2.39524e-15 -9.37228e-15 -2.00468e-14 -3.50274e-14 -5.45317e-14 -7.81036e-14 -1.04277e-13 -1.30206e-13 -1.513e-13 -1.60911e-13 -1.50128e-13 -1.07762e-13 -2.05866e-14 1.26085e-13 3.47425e-13 6.57671e-13 1.06824e-12 1.58541e-12 2.20759e-12 2.92239e-12 3.70345e-12 4.50754e-12 5.27179e-12 5.9117e-12 6.31985e-12 6.3659e-12 5.89782e-12 4.7447e-12 2.72128e-12 -3.65902e-13 -4.71079e-12 -1.04985e-11 -1.78951e-11 -2.70362e-11 -3.80155e-11 -5.08736e-11 -6.5587e-11 -8.20587e-11 -1.00111e-10 -1.19478e-10 -1.39807e-10 -1.60654e-10 -1.81489e-10 -2.01704e-10 -2.2062e-10 -2.375e-10 -2.51565e-10 -2.62011e-10 -2.68028e-10 -2.68817e-10 -2.63615e-10 -2.51711e-10 -2.32467e-10 -2.05334e-10 -1.69871e-10 -1.25751e-10 -7.27818e-11 -1.09017e-11 5.98069e-11 1.39124e-10 2.26687e-10 3.22001e-10 4.24447e-10 5.33288e-10 6.47684e-10 7.66708e-10 8.89356e-10 1.01457e-09 1.14123e-09 1.26823e-09 1.39441e-09 1.51864e-09 1.6398e-09 1.75681e-09 1.86861e-09 1.97422e-09 2.07271e-09 2.16323e-09 2.24499e-09 2.31728e-09 2.37951e-09 2.43114e-09 2.47175e-09 2.501e-09 2.51865e-09 2.52455e-09 2.51865e-09 2.501e-09 2.47175e-09 2.43114e-09 2.37951e-09 2.31728e-09 2.24499e-09 2.16323e-09 2.07271e-09 1.97422e-09 1.86861e-09 1.75681e-09 1.6398e-09 1.51864e-09 1.39441e-09 1.26823e-09 1.14123e-09 1.01457e-09 8.89356e-10 7.66708e-10 6.47684e-10 5.33288e-10 4.24447e-10 3.22001e-10 2.26687e-10 1.39124e-10 5.98069e-11 -1.09017e-11 -7.27818e-11 -1.25751e-10 -1.69871e-10 -2.05334e-10 -2.32467e-10 -2.51711e-10 -2.63615e-10 -2.68817e-10 -2.68028e-10 -2.62011e-10 -2.51565e-10 -2.375e-10 -2.2062e-10 -2.01704e-10 -1.81489e-10 -1.60654e-10 -1.39807e-10 -1.19478e-10 -1.00111e-10 -8.20587e-11 -6.5587e-11 -5.08736e-11 -3.80155e-11 -2.70362e-11 -1.78951e-11 -1.04985e-11 -4.71079e-12 -3.65902e-13 2.72128e-12 4.7447e-12 5.89782e-12 6.3659e-12 6.31985e-12 5.9117e-12 5.27179e-12 4.50754e-12 3.70345e-12 2.92239e-12 2.20759e-12 1.58541e-12 1.06824e-12 6.57671e-13 3.47425e-13 1.26085e-13 -2.05866e-14 -1.07762e-13 -1.50128e-13 -1.60911e-13 -1.513e-13 -1.30206e-13 -1.04277e-13 -7.81036e-14 -5.45317e-14 -3.50274e-14 -2.00468e-14 -9.37228e-15 -2.39524e-15 1.66399e-15 3.60038e-15 4.12592e-15 3.81897e-15 3.10922e-15 2.2867e-15 1.52449e-15 9.06954e-16 4.57768e-16 1.64108e-16 -4.62861e-18 -8.38828e-17 -1.06122e-16 -9.70801e-17 -7.48091e-17 -5.04265e-17 -2.96571e-17 -1.45477e-17 -4.98088e-18 1.78377e-19 2.32871e-18 2.71615e-18 2.26419e-18 1.55805e-18 9.06737e-19 4.29719e-19 1.37086e-19 -1.04611e-20 -6.4e-20 -6.73258e-20 -5.05185e-20 -3.05591e-20 -1.48386e-20 -5.02992e-21 -1.35722e-22 1.59228e-21 1.69811e-21 1.21015e-21 6.68985e-22 2.78939e-22 6.31e-23 -2.59088e-23 -4.47717e-23 -3.51085e-23 -1.98827e-23 -8.27097e-24 -1.87815e-24 6.52e-25 1.12206e-24 8.23821e-25 4.21919e-25 1.4691e-25 1.49974e-26 -2.55397e-26 -2.53625e-26 -1.46433e-26 -5.7218e-27 -1.05839e-27 5.29306e-28 6.68561e-28 3.98006e-28 1.53117e-28 2.65889e-29 -1.40138e-29 -1.61547e-29 -8.77488e-30 -2.90421e-30 -2.39674e-31 4.25226e-31 3.41715e-31 1.48639e-31 3.33711e-32 -6.33703e-33 -1.04206e-32 -5.53693e-33 -1.61659e-33 -1.89793e-35 2.73692e-34 1.69911e-34 5.5173e-35 4.04385e-36 -6.78541e-36 -4.56354e-36 -1.49828e-36 -1.15906e-37 1.69524e-37 1.09947e-37 3.33147e-38 1.2403e-39 -4.23912e-39 -2.35739e-39 -5.90941e-40 3.54273e-41 9.90963e-41 4.32723e-41 7.37063e-42 -2.31429e-42 -2.08944e-42 -7.19788e-43 -1.13795e-43 -1.37103e-45 0 0 0 0 0 0 0 0 0 0 0 0 0 0 0 0 0 0 0 0 0 0 0 0 0 0 0 0 0 0 0 0 0 0 0 0 0 0 0 0 0 0 0 0 0 0 0 0 0 0 0 0 0 0 0 0 0 0 0 0 0 0 0 0 0 0 0 0 0 0 0 0 0 0 0 0 0 0 0 0 0 0 0 0 0 0 0 0 0 0 0 0 0 0 0 0 0 0 0 0 0 0 0 0 0 0 0 0 0 0 0 0 0 