<?xml version="1.0"?>
<VTKFile type="ImageData" version="0.1" byte_order="LittleEndian">
<ImageData WholeExtent="0 599 0 599 0 0" Origin="0 0 0" Spacing="5 5 0">
<Piece Extent="0 599 0 599 0 0">
<PointData Scalars="Amplitude">
<DataArray type="Float32" Name="Amplitude" format="ascii">
0 0 0 0 0 0 0 0 0 0 0 0 0 0 0 0 0 0 0 0 0 0 0 0 0 0 0 0 0 0 0 0 0 0 0 0 0 0 0 0 0 0 0 0 0 0 0 0 0 0 0 0 0 0 0 0 0 0 0 0 0 0 0 0 0 0 0 0 0 0 0 0 0 0 0 0 0 0 0 0 0 0 0 0 0 0 0 0 0 0 0 0 0 0 0 0 0 0 0 0 0 0 0 0 0 0 0 0 0 0 0 0 0 0 0 0 0 0 0 0 0 0 0 0 0 0 0 0 0 0 0 0 0 0 0 0 0 0 0 0 0 0 0 0 0 0 0 0 0 0 0 0 0 0 0 0 0 0 0 0 0 0 0 0 0 0 0 0 0 0 0 0 0 0 0 0 0 0 0 0 0 0 0 0 0 0 0 0 0 0 0 0 0 0 0 0 0 0 0 0 0 0 0 0 0 0 0 0 0 0 0 0 0 0 0 0 0 0 0 0 0 0 0 0 0 0 0 0 0 0 0 0 0 0 0 0 0 0 0 0 0 0 0 0 0 0 0 0 0 0 0 0 0 0 0 0 0 0 0 0 0 0 0 0 0 0 0 0 0 0 0 0 0 0 0 0 0 0 0 0 0 0 0 0 0 0 0 0 0 0 0 0 0 0 0 0 0 0 0 0 0 0 0 0 0 0 0 0 0 0 0 0 0 0 0 0 0 0 0 0 0 0 0 0 0 0 0 0 0 0 0 0 0 0 0 0 0 0 0 0 0 0 0 0 0 0 0 0 0 0 0 0 0 0 0 0 0 0 0 0 0 0 0 0 0 0 0 0 0 0 0 0 0 0 0 0 0 0 0 0 0 0 0 0 0 0 0 0 0 0 0 0 0 0 0 0 0 0 0 0 0 0 0 0 0 0 0 0 0 0 0 0 0 0 0 0 0 0 0 0 0 0 0 0 0 0 0 0 0 0 0 0 0 0 0 0 0 0 0 0 0 0 0 0 0 0 0 0 0 0 0 0 0 0 0 0 0 0 0 0 0 0 0 0 0 0 0 0 0 0 0 0 0 0 0 0 0 0 0 0 0 0 0 0 0 0 0 0 0 0 0 0 0 0 0 0 0 0 0 0 0 0 0 0 0 0 0 0 0 0 0 0 0 0 0 0 0 0 0 0 0 0 0 0 0 0 0 0 0 0 0 0 0 0 0 0 0 0 0 0 0 0 0 0 0 0 0 0 0 0 0 0 0 0 0 0 0 0 0 0 0 0 0 0 0 0 0 0 0 0 0 0 0 0 0 0 0 0 0 0 0 0 0 0 0 0 0 0 0 0 0 0 0 0 0 0 0 0 0 0 
0 0 0 0 0 0 0 0 0 0 0 0 0 0 0 0 0 0 0 0 0 0 0 0 0 0 0 0 0 0 0 0 0 0 0 0 0 0 0 0 0 0 0 0 0 0 0 0 0 0 0 0 0 0 0 0 0 0 0 0 0 0 0 0 0 0 0 0 0 0 0 0 0 0 0 0 0 0 0 0 0 0 0 0 0 0 0 0 0 0 0 0 0 0 0 0 0 0 0 0 0 0 0 0 0 0 0 0 0 0 0 0 0 0 0 0 0 0 0 0 0 0 0 0 0 0 0 0 0 0 0 0 0 0 0 0 0 0 0 0 0 0 0 0 0 0 0 0 0 0 0 0 0 0 0 0 0 0 0 0 0 0 0 0 0 0 0 0 0 0 0 0 0 0 0 0 0 0 0 0 0 0 0 0 0 0 0 0 0 0 0 0 0 0 0 0 0 0 0 0 0 0 0 0 0 0 0 0 0 0 0 0 0 0 0 0 0 0 0 0 0 0 0 0 0 0 0 0 0 0 0 0 0 0 0 0 0 0 0 0 0 0 0 0 0 0 0 0 0 0 0 0 0 0 0 0 0 0 0 0 0 0 0 0 0 0 0 0 0 0 0 0 0 0 0 0 0 0 0 0 0 0 0 0 0 0 0 0 0 0 0 0 0 0 0 0 0 0 0 0 0 0 0 0 0 0 0 0 0 0 0 0 0 0 0 0 0 0 0 0 0 0 0 0 0 0 0 0 0 0 0 0 0 0 0 0 0 0 0 0 0 0 0 0 0 0 0 0 0 0 0 0 0 0 0 0 0 0 0 0 0 0 0 0 0 0 0 0 0 0 0 0 0 0 0 0 0 0 0 0 0 0 0 0 0 0 0 0 0 0 0 0 0 0 0 0 0 0 0 0 0 0 0 0 0 0 0 0 0 0 0 0 0 0 0 0 0 0 0 0 0 0 0 0 0 0 0 0 0 0 0 0 0 0 0 0 0 0 0 0 0 0 0 0 0 0 0 0 0 0 0 0 0 0 0 0 0 0 0 0 0 0 0 0 0 0 0 0 0 0 0 0 0 0 0 0 0 0 0 0 0 0 0 0 0 0 0 0 0 0 0 0 0 0 0 0 0 0 0 0 0 0 0 0 0 0 0 0 0 0 0 0 0 0 0 0 0 0 0 0 0 0 0 0 0 0 0 0 0 0 0 0 0 0 0 0 0 0 0 0 0 0 0 0 0 0 0 0 0 0 0 0 0 0 0 0 0 0 0 0 0 0 0 0 0 0 0 0 0 0 0 0 0 0 0 0 0 0 0 0 0 0 0 0 0 0 0 0 0 0 0 0 0 0 0 0 0 0 0 0 
0 0 0 0 0 0 0 0 0 0 0 0 0 0 0 0 0 0 0 0 0 0 0 0 0 0 0 0 0 0 0 0 0 0 0 0 0 0 0 0 0 0 0 0 0 0 0 0 0 0 0 0 0 0 0 0 0 0 0 0 0 0 0 0 0 0 0 0 0 0 0 0 0 0 0 0 0 0 0 0 0 0 0 0 0 0 0 0 0 0 0 0 0 0 0 0 0 0 0 0 0 0 0 0 0 0 0 0 0 0 0 0 0 0 0 0 0 0 0 0 0 0 0 0 0 0 0 0 0 0 0 0 0 0 0 0 0 0 0 0 0 0 0 0 0 0 0 0 0 0 0 0 0 0 0 0 0 0 0 0 0 0 0 0 0 0 0 0 0 0 0 0 0 0 0 0 0 0 0 0 0 0 0 0 0 0 0 0 0 0 0 0 0 0 0 0 0 0 0 0 0 0 0 0 0 0 0 0 -0 -0 -0 -0 -2.03574e-44 -7.32867e-44 -1.24859e-43 -1.54716e-43 -9.50012e-44 1.90002e-43 8.8894e-43 2.18774e-42 4.17055e-42 6.53609e-42 8.20811e-42 6.81566e-42 -1.79417e-42 -2.36811e-41 -6.59824e-41 -1.34539e-40 -2.28789e-40 -3.33807e-40 -4.08868e-40 -3.74308e-40 -1.0037e-40 5.96608e-40 1.94012e-39 4.15049e-39 7.35971e-39 1.14733e-38 1.59755e-38 1.96883e-38 2.05119e-38 1.5203e-38 -7.2558e-40 -3.28751e-38 -8.74696e-38 -1.70374e-37 -2.85513e-37 -4.32636e-37 -6.04471e-37 -7.83411e-37 -9.38061e-37 -1.02009e-36 -9.61978e-37 -6.76461e-37 -5.82462e-38 1.01112e-36 2.65485e-36 4.98857e-36 8.1044e-36 1.20517e-35 1.68157e-35 2.2296e-35 2.82853e-35 3.44529e-35 4.03329e-35 4.53202e-35 4.86755e-35 4.95418e-35 4.69692e-35 3.99519e-35 2.74715e-35 8.54811e-36 -1.77074e-35 -5.20399e-35 -9.5002e-35 -1.46912e-34 -2.07826e-34 -2.77516e-34 -3.55472e-34 -4.40908e-34 -5.32795e-34 -6.29892e-34 -7.308e-34 -8.34015e-34 -9.37988e-34 -1.04118e-33 -1.14214e-33 -1.2395e-33 -1.33207e-33 -1.41885e-33 -1.49902e-33 -1.57196e-33 -1.63728e-33 -1.69472e-33 -1.74419e-33 -1.78571e-33 -1.81939e-33 -1.84536e-33 -1.86377e-33 -1.87476e-33 -1.87841e-33 -1.87476e-33 -1.86377e-33 -1.84536e-33 -1.81939e-33 -1.78571e-33 -1.74419e-33 -1.69472e-33 -1.63728e-33 -1.57196e-33 -1.49902e-33 -1.41885e-33 -1.33207e-33 -1.2395e-33 -1.14214e-33 -1.04118e-33 -9.37988e-34 -8.34015e-34 -7.308e-34 -6.29892e-34 -5.32795e-34 -4.40908e-34 -3.55472e-34 -2.77516e-34 -2.07826e-34 -1.46912e-34 -9.5002e-35 -5.20399e-35 -1.77074e-35 8.54811e-36 2.74715e-35 3.99519e-35 4.69692e-35 4.95418e-35 4.86755e-35 4.53202e-35 4.03329e-35 3.44529e-35 2.82853e-35 2.2296e-35 1.68157e-35 1.20517e-35 8.1044e-36 4.98857e-36 2.65485e-36 1.01112e-36 -5.82462e-38 -6.76461e-37 -9.61978e-37 -1.02009e-36 -9.38061e-37 -7.83411e-37 -6.04471e-37 -4.32636e-37 -2.85513e-37 -1.70374e-37 -8.74696e-38 -3.28751e-38 -7.2558e-40 1.5203e-38 2.05119e-38 1.96883e-38 1.59755e-38 1.14733e-38 7.35971e-39 4.15049e-39 1.94012e-39 5.96608e-40 -1.0037e-40 -3.74308e-40 -4.08868e-40 -3.33807e-40 -2.28789e-40 -1.34539e-40 -6.59824e-41 -2.36811e-41 -1.79417e-42 6.81566e-42 8.20811e-42 6.53609e-42 4.17055e-42 2.18774e-42 8.8894e-43 1.90002e-43 -9.50012e-44 -1.54716e-43 -1.24859e-43 -7.32867e-44 -2.03574e-44 -0 -0 -0 -0 0 0 0 0 0 0 0 0 0 0 0 0 0 0 0 0 0 0 0 0 0 0 0 0 0 0 0 0 0 0 0 0 0 0 0 0 0 0 0 0 0 0 0 0 0 0 0 0 0 0 0 0 0 0 0 0 0 0 0 0 0 0 0 0 0 0 0 0 0 0 0 0 0 0 0 0 0 0 0 0 0 0 0 0 0 0 0 0 0 0 0 0 0 0 0 0 0 0 0 0 0 0 0 0 0 0 0 0 0 0 0 0 0 0 0 0 0 0 0 0 0 0 0 0 0 0 0 0 0 0 0 0 0 0 0 0 0 0 0 0 0 0 0 0 0 0 0 0 0 0 0 0 0 0 0 0 0 0 0 0 0 0 0 0 0 0 0 0 0 0 0 0 0 0 0 0 0 0 0 0 0 0 0 0 0 0 0 0 0 0 0 0 0 0 0 0 0 0 0 0 0 0 0 0 0 0 0 
0 0 0 0 0 0 0 0 0 0 0 0 0 0 0 0 0 0 0 0 0 0 0 0 0 0 0 0 0 0 0 0 0 0 0 0 0 0 0 0 0 0 0 0 0 0 0 0 0 0 0 0 0 0 0 0 0 0 0 0 0 0 0 0 0 0 0 0 0 0 0 0 0 0 0 0 0 0 0 0 0 0 0 0 0 0 0 0 0 0 0 0 0 0 0 0 0 0 0 0 0 0 0 0 0 0 0 0 0 0 0 0 0 0 0 0 0 0 0 0 0 0 0 0 0 0 0 0 0 0 0 0 0 0 0 0 0 0 0 0 0 0 0 0 0 0 0 0 0 0 0 0 0 0 0 0 0 0 0 0 0 0 0 0 0 0 0 0 0 0 0 0 0 0 0 0 0 0 0 0 0 0 0 0 0 0 0 0 0 0 0 0 0 0 0 0 0 0 0 0 0 0 0 0 0 0 0 0 -1.88529e-45 -1.44057e-44 -5.05655e-44 -1.14858e-43 -2.05546e-43 -2.63889e-43 -1.51404e-43 3.66224e-43 1.6166e-42 3.9695e-42 7.52246e-42 1.16175e-41 1.39881e-41 9.776e-42 -9.43548e-42 -5.54932e-41 -1.41565e-40 -2.76085e-40 -4.51078e-40 -6.23614e-40 -6.91208e-40 -4.65505e-40 3.46052e-40 2.1337e-39 5.32984e-39 1.02755e-38 1.69799e-38 2.47547e-38 3.17297e-38 3.42976e-38 2.65957e-38 2.06667e-40 -5.56662e-38 -1.53229e-37 -3.03989e-37 -5.15195e-37 -7.84649e-37 -1.09391e-36 -1.40032e-36 -1.62853e-36 -1.663e-36 -1.34304e-36 -4.62642e-37 1.22269e-36 3.97977e-36 8.07058e-36 1.37132e-35 2.10311e-35 2.99925e-35 4.0344e-35 5.15427e-35 6.26945e-35 7.2505e-35 7.92534e-35 8.07929e-35 7.45879e-35 5.77882e-35 2.73428e-35 -1.98506e-35 -8.67658e-35 -1.7605e-34 -2.89818e-34 -4.29455e-34 -5.95442e-34 -7.87223e-34 -1.00312e-33 -1.2403e-33 -1.49485e-33 -1.76184e-33 -2.03554e-33 -2.30965e-33 -2.57754e-33 -2.83259e-33 -3.06846e-33 -3.27944e-33 -3.46068e-33 -3.60845e-33 -3.7203e-33 -3.7952e-33 -3.83356e-33 -3.83719e-33 -3.80925e-33 -3.75405e-33 -3.67688e-33 -3.58374e-33 -3.48103e-33 -3.37534e-33 -3.27308e-33 -3.18022e-33 -3.10205e-33 -3.04293e-33 -3.00612e-33 -2.99363e-33 -3.00612e-33 -3.04293e-33 -3.10205e-33 -3.18022e-33 -3.27308e-33 -3.37534e-33 -3.48103e-33 -3.58374e-33 -3.67688e-33 -3.75405e-33 -3.80925e-33 -3.83719e-33 -3.83356e-33 -3.7952e-33 -3.7203e-33 -3.60845e-33 -3.46068e-33 -3.27944e-33 -3.06846e-33 -2.83259e-33 -2.57754e-33 -2.30965e-33 -2.03554e-33 -1.76184e-33 -1.49485e-33 -1.2403e-33 -1.00312e-33 -7.87223e-34 -5.95442e-34 -4.29455e-34 -2.89818e-34 -1.7605e-34 -8.67658e-35 -1.98506e-35 2.73428e-35 5.77882e-35 7.45879e-35 8.07929e-35 7.92534e-35 7.2505e-35 6.26945e-35 5.15427e-35 4.0344e-35 2.99925e-35 2.10311e-35 1.37132e-35 8.07058e-36 3.97977e-36 1.22269e-36 -4.62642e-37 -1.34304e-36 -1.663e-36 -1.62853e-36 -1.40032e-36 -1.09391e-36 -7.84649e-37 -5.15195e-37 -3.03989e-37 -1.53229e-37 -5.56662e-38 2.06667e-40 2.65957e-38 3.42976e-38 3.17297e-38 2.47547e-38 1.69799e-38 1.02755e-38 5.32984e-39 2.1337e-39 3.46052e-40 -4.65505e-40 -6.91208e-40 -6.23614e-40 -4.51078e-40 -2.76085e-40 -1.41565e-40 -5.54932e-41 -9.43548e-42 9.776e-42 1.39881e-41 1.16175e-41 7.52246e-42 3.9695e-42 1.6166e-42 3.66224e-43 -1.51404e-43 -2.63889e-43 -2.05546e-43 -1.14858e-43 -5.05655e-44 -1.44057e-44 -1.88529e-45 0 0 0 0 0 0 0 0 0 0 0 0 0 0 0 0 0 0 0 0 0 0 0 0 0 0 0 0 0 0 0 0 0 0 0 0 0 0 0 0 0 0 0 0 0 0 0 0 0 0 0 0 0 0 0 0 0 0 0 0 0 0 0 0 0 0 0 0 0 0 0 0 0 0 0 0 0 0 0 0 0 0 0 0 0 0 0 0 0 0 0 0 0 0 0 0 0 0 0 0 0 0 0 0 0 0 0 0 0 0 0 0 0 0 0 0 0 0 0 0 0 0 0 0 0 0 0 0 0 0 0 0 0 0 0 0 0 0 0 0 0 0 0 0 0 0 0 0 0 0 0 0 0 0 0 0 0 0 0 0 0 0 0 0 0 0 0 0 0 0 0 0 0 0 0 0 0 0 0 0 0 0 0 0 0 0 0 0 0 0 0 0 0 0 0 0 0 0 0 0 0 0 0 0 0 0 0 
0 0 0 0 0 0 0 0 0 0 0 0 0 0 0 0 0 0 0 0 0 0 0 0 0 0 0 0 0 0 0 0 0 0 0 0 0 0 0 0 0 0 0 0 0 0 0 0 0 0 0 0 0 0 0 0 0 0 0 0 0 0 0 0 0 0 0 0 0 0 0 0 0 0 0 0 0 0 0 0 0 0 0 0 0 0 0 0 0 0 0 0 0 0 0 0 0 0 0 0 0 0 0 0 0 0 0 0 0 0 0 0 0 0 0 0 0 0 0 0 0 0 0 0 0 0 0 0 0 0 0 0 0 0 0 0 0 0 0 0 0 0 0 0 0 0 0 0 0 0 0 0 0 0 0 0 0 0 0 0 0 0 0 0 0 0 0 0 0 0 0 0 0 0 0 0 0 0 0 0 0 0 0 0 0 0 0 0 0 0 0 0 0 0 0 0 0 0 0 0 0 0 0 0 0 0 -0 -0 -2.04661e-44 -8.32287e-44 -2.11483e-43 -3.67025e-43 -4.81635e-43 -2.76974e-43 6.79474e-43 3.02216e-42 7.39098e-42 1.39388e-41 2.12574e-41 2.48158e-41 1.4958e-41 -2.46412e-41 -1.1656e-40 -2.84715e-40 -5.41224e-40 -8.62025e-40 -1.14898e-39 -1.18094e-39 -5.64842e-40 1.29145e-39 5.14657e-39 1.17823e-38 2.1688e-38 3.45191e-38 4.83018e-38 5.84222e-38 5.6535e-38 2.9667e-38 -4.00456e-38 -1.7439e-37 -3.96169e-37 -7.2362e-37 -1.1616e-36 -1.68928e-36 -2.24482e-36 -2.7082e-36 -2.88455e-36 -2.49138e-36 -1.15429e-36 1.58392e-36 6.23508e-36 1.3314e-35 2.32599e-35 3.63302e-35 5.24703e-35 7.11643e-35 9.12799e-35 1.10921e-34 1.27309e-34 1.36705e-34 1.34409e-34 1.14828e-34 7.16545e-35 -1.86627e-36 -1.12568e-34 -2.66913e-34 -4.70485e-34 -7.27451e-34 -1.04004e-33 -1.40808e-33 -1.82861e-33 -2.29564e-33 -2.80009e-33 -3.32989e-33 -3.87028e-33 -4.40428e-33 -4.91336e-33 -5.37822e-33 -5.77964e-33 -6.09943e-33 -6.3213e-33 -6.4317e-33 -6.42056e-33 -6.28183e-33 -6.01394e-33 -5.6199e-33 -5.10736e-33 -4.48837e-33 -3.77898e-33 -2.99866e-33 -2.16965e-33 -1.31612e-33 -4.63394e-34 3.63034e-34 1.13824e-33 1.83879e-33 2.44345e-33 2.93389e-33 3.29523e-33 3.51651e-33 3.59101e-33 3.51651e-33 3.29523e-33 2.93389e-33 2.44345e-33 1.83879e-33 1.13824e-33 3.63034e-34 -4.63394e-34 -1.31612e-33 -2.16965e-33 -2.99866e-33 -3.77898e-33 -4.48837e-33 -5.10736e-33 -5.6199e-33 -6.01394e-33 -6.28183e-33 -6.42056e-33 -6.4317e-33 -6.3213e-33 -6.09943e-33 -5.77964e-33 -5.37822e-33 -4.91336e-33 -4.40428e-33 -3.87028e-33 -3.32989e-33 -2.80009e-33 -2.29564e-33 -1.82861e-33 -1.40808e-33 -1.04004e-33 -7.27451e-34 -4.70485e-34 -2.66913e-34 -1.12568e-34 -1.86627e-36 7.16545e-35 1.14828e-34 1.34409e-34 1.36705e-34 1.27309e-34 1.10921e-34 9.12799e-35 7.11643e-35 5.24703e-35 3.63302e-35 2.32599e-35 1.3314e-35 6.23508e-36 1.58392e-36 -1.15429e-36 -2.49138e-36 -2.88455e-36 -2.7082e-36 -2.24482e-36 -1.68928e-36 -1.1616e-36 -7.2362e-37 -3.96169e-37 -1.7439e-37 -4.00456e-38 2.9667e-38 5.6535e-38 5.84222e-38 4.83018e-38 3.45191e-38 2.1688e-38 1.17823e-38 5.14657e-39 1.29145e-39 -5.64842e-40 -1.18094e-39 -1.14898e-39 -8.62025e-40 -5.41224e-40 -2.84715e-40 -1.1656e-40 -2.46412e-41 1.4958e-41 2.48158e-41 2.12574e-41 1.39388e-41 7.39098e-42 3.02216e-42 6.79474e-43 -2.76974e-43 -4.81635e-43 -3.67025e-43 -2.11483e-43 -8.32287e-44 -2.04661e-44 -0 -0 0 0 0 0 0 0 0 0 0 0 0 0 0 0 0 0 0 0 0 0 0 0 0 0 0 0 0 0 0 0 0 0 0 0 0 0 0 0 0 0 0 0 0 0 0 0 0 0 0 0 0 0 0 0 0 0 0 0 0 0 0 0 0 0 0 0 0 0 0 0 0 0 0 0 0 0 0 0 0 0 0 0 0 0 0 0 0 0 0 0 0 0 0 0 0 0 0 0 0 0 0 0 0 0 0 0 0 0 0 0 0 0 0 0 0 0 0 0 0 0 0 0 0 0 0 0 0 0 0 0 0 0 0 0 0 0 0 0 0 0 0 0 0 0 0 0 0 0 0 0 0 0 0 0 0 0 0 0 0 0 0 0 0 0 0 0 0 0 0 0 0 0 0 0 0 0 0 0 0 0 0 0 0 0 0 0 0 0 0 0 0 0 0 0 0 0 0 0 0 0 0 0 0 0 0 
0 0 0 0 0 0 0 0 0 0 0 0 0 0 0 0 0 0 0 0 0 0 0 0 0 0 0 0 0 0 0 0 0 0 0 0 0 0 0 0 0 0 0 0 0 0 0 0 0 0 0 0 0 0 0 0 0 0 0 0 0 0 0 0 0 0 0 0 0 0 0 0 0 0 0 0 0 0 0 0 0 0 0 0 0 0 0 0 0 0 0 0 0 0 0 0 0 0 0 0 0 0 0 0 0 0 0 0 0 0 0 0 0 0 0 0 0 0 0 0 0 0 0 0 0 0 0 0 0 0 0 0 0 0 0 0 0 0 0 0 0 0 0 0 0 0 0 0 0 0 0 0 0 0 0 0 0 0 0 0 0 0 0 0 0 0 0 0 0 0 0 0 0 0 0 0 0 0 0 0 0 0 0 0 0 0 0 0 0 0 0 0 0 0 0 0 0 0 0 0 0 0 0 0 -0 -4.10338e-45 -3.82982e-44 -1.27205e-43 -2.80398e-43 -4.44533e-43 -4.48636e-43 7.24931e-44 1.75488e-42 5.42194e-42 1.15934e-41 1.96319e-41 2.58882e-41 2.14415e-41 -1.03268e-41 -9.44434e-41 -2.59829e-40 -5.25675e-40 -8.7293e-40 -1.19764e-39 -1.24775e-39 -5.56789e-40 1.59496e-39 6.13801e-39 1.40115e-38 2.57084e-38 4.04821e-38 5.5177e-38 6.27536e-38 5.07588e-38 2.43644e-40 -1.14073e-37 -3.2131e-37 -6.48322e-37 -1.10875e-36 -1.68638e-36 -2.31278e-36 -2.84069e-36 -3.01651e-36 -2.45763e-36 -6.42615e-37 3.07519e-36 9.41958e-36 1.90977e-35 3.26518e-35 5.02533e-35 7.14428e-35 9.48295e-35 1.17775e-34 1.36098e-34 1.43846e-34 1.33185e-34 9.44646e-35 1.65044e-35 -1.12857e-34 -3.05936e-34 -5.7411e-34 -9.2648e-34 -1.36838e-33 -1.89983e-33 -2.51399e-33 -3.19589e-33 -3.92139e-33 -4.6567e-33 -5.35836e-33 -5.97395e-33 -6.44338e-33 -6.70082e-33 -6.67727e-33 -6.30348e-33 -5.51311e-33 -4.24609e-33 -2.45178e-33 -9.18301e-35 2.85746e-33 6.40337e-33 1.05358e-32 1.5227e-32 2.04323e-32 2.60909e-32 3.21286e-32 3.84595e-32 4.49892e-32 5.16175e-32 5.82415e-32 6.47584e-32 7.1068e-32 7.70751e-32 8.26911e-32 8.78355e-32 9.24369e-32 9.64333e-32 9.97729e-32 1.02413e-31 1.04322e-31 1.05477e-31 1.05863e-31 1.05477e-31 1.04322e-31 1.02413e-31 9.97729e-32 9.64333e-32 9.24369e-32 8.78355e-32 8.26911e-32 7.70751e-32 7.1068e-32 6.47584e-32 5.82415e-32 5.16175e-32 4.49892e-32 3.84595e-32 3.21286e-32 2.60909e-32 2.04323e-32 1.5227e-32 1.05358e-32 6.40337e-33 2.85746e-33 -9.18301e-35 -2.45178e-33 -4.24609e-33 -5.51311e-33 -6.30348e-33 -6.67727e-33 -6.70082e-33 -6.44338e-33 -5.97395e-33 -5.35836e-33 -4.6567e-33 -3.92139e-33 -3.19589e-33 -2.51399e-33 -1.89983e-33 -1.36838e-33 -9.2648e-34 -5.7411e-34 -3.05936e-34 -1.12857e-34 1.65044e-35 9.44646e-35 1.33185e-34 1.43846e-34 1.36098e-34 1.17775e-34 9.48295e-35 7.14428e-35 5.02533e-35 3.26518e-35 1.90977e-35 9.41958e-36 3.07519e-36 -6.42615e-37 -2.45763e-36 -3.01651e-36 -2.84069e-36 -2.31278e-36 -1.68638e-36 -1.10875e-36 -6.48322e-37 -3.2131e-37 -1.14073e-37 2.43644e-40 5.07588e-38 6.27536e-38 5.5177e-38 4.04821e-38 2.57084e-38 1.40115e-38 6.13801e-39 1.59496e-39 -5.56789e-40 -1.24775e-39 -1.19764e-39 -8.7293e-40 -5.25675e-40 -2.59829e-40 -9.44434e-41 -1.03268e-41 2.14415e-41 2.58882e-41 1.96319e-41 1.15934e-41 5.42194e-42 1.75488e-42 7.24931e-44 -4.48636e-43 -4.44533e-43 -2.80398e-43 -1.27205e-43 -3.82982e-44 -4.10338e-45 -0 0 0 0 0 0 0 0 0 0 0 0 0 0 0 0 0 0 0 0 0 0 0 0 0 0 0 0 0 0 0 0 0 0 0 0 0 0 0 0 0 0 0 0 0 0 0 0 0 0 0 0 0 0 0 0 0 0 0 0 0 0 0 0 0 0 0 0 0 0 0 0 0 0 0 0 0 0 0 0 0 0 0 0 0 0 0 0 0 0 0 0 0 0 0 0 0 0 0 0 0 0 0 0 0 0 0 0 0 0 0 0 0 0 0 0 0 0 0 0 0 0 0 0 0 0 0 0 0 0 0 0 0 0 0 0 0 0 0 0 0 0 0 0 0 0 0 0 0 0 0 0 0 0 0 0 0 0 0 0 0 0 0 0 0 0 0 0 0 0 0 0 0 0 0 0 0 0 0 0 0 0 0 0 0 0 0 0 0 0 0 0 0 0 0 0 0 0 0 0 0 0 0 0 
0 0 0 0 0 0 0 0 0 0 0 0 0 0 0 0 0 0 0 0 0 0 0 0 0 0 0 0 0 0 0 0 0 0 0 0 0 0 0 0 0 0 0 0 0 0 0 0 0 0 0 0 0 0 0 0 0 0 0 0 0 0 0 0 0 0 0 0 0 0 0 0 0 0 0 0 0 0 0 0 0 0 0 0 0 0 0 0 0 0 0 0 0 0 0 0 0 0 0 0 0 0 0 0 0 0 0 0 0 0 0 0 0 0 0 0 0 0 0 0 0 0 0 0 0 0 0 0 0 0 0 0 0 0 0 0 0 0 0 0 0 0 0 0 0 0 0 0 0 0 0 0 0 0 0 0 0 0 0 0 0 0 0 0 0 0 0 0 0 0 0 0 0 0 0 0 0 0 0 0 0 0 0 0 0 0 0 0 0 0 0 0 0 0 0 0 0 0 0 0 0 0 -0 -1.37103e-44 -6.58092e-44 -1.82346e-43 -3.59209e-43 -5.19619e-43 -3.96226e-43 5.73089e-43 3.27949e-42 8.70327e-42 1.70679e-41 2.62428e-41 2.90095e-41 9.60952e-42 -5.85373e-41 -2.10835e-40 -4.79076e-40 -8.61448e-40 -1.26756e-39 -1.43767e-39 -8.49072e-40 1.35347e-39 6.32922e-39 1.53025e-38 2.89677e-38 4.6396e-38 6.33668e-38 7.02169e-38 4.96026e-38 -2.49953e-38 -1.88653e-37 -4.80371e-37 -9.32179e-37 -1.5498e-36 -2.28355e-36 -2.98987e-36 -3.38711e-36 -3.01303e-36 -1.197e-36 2.93547e-36 1.04035e-35 2.22332e-35 3.92192e-35 6.15721e-35 8.84501e-35 1.17397e-34 1.4373e-34 1.59959e-34 1.55337e-34 1.1567e-34 2.35356e-35 -1.40961e-34 -3.98769e-34 -7.69745e-34 -1.26978e-33 -1.90726e-33 -2.67906e-33 -3.56634e-33 -4.53046e-33 -5.50945e-33 -6.41555e-33 -7.1341e-33 -7.52423e-33 -7.42165e-33 -6.6435e-33 -4.99536e-33 -2.27995e-33 1.69258e-33 7.09383e-33 1.40661e-32 2.2712e-32 3.30856e-32 4.51859e-32 5.89527e-32 7.42656e-32 9.09468e-32 1.08766e-31 1.27451e-31 1.46694e-31 1.66172e-31 1.85552e-31 2.04513e-31 2.22752e-31 2.40003e-31 2.56042e-31 2.70694e-31 2.83842e-31 2.95423e-31 3.05429e-31 3.13903e-31 3.20929e-31 3.26624e-31 3.31129e-31 3.34597e-31 3.37181e-31 3.39022e-31 3.40243e-31 3.40936e-31 3.41161e-31 3.40936e-31 3.40243e-31 3.39022e-31 3.37181e-31 3.34597e-31 3.31129e-31 3.26624e-31 3.20929e-31 3.13903e-31 3.05429e-31 2.95423e-31 2.83842e-31 2.70694e-31 2.56042e-31 2.40003e-31 2.22752e-31 2.04513e-31 1.85552e-31 1.66172e-31 1.46694e-31 1.27451e-31 1.08766e-31 9.09468e-32 7.42656e-32 5.89527e-32 4.51859e-32 3.30856e-32 2.2712e-32 1.40661e-32 7.09383e-33 1.69258e-33 -2.27995e-33 -4.99536e-33 -6.6435e-33 -7.42165e-33 -7.52423e-33 -7.1341e-33 -6.41555e-33 -5.50945e-33 -4.53046e-33 -3.56634e-33 -2.67906e-33 -1.90726e-33 -1.26978e-33 -7.69745e-34 -3.98769e-34 -1.40961e-34 2.35356e-35 1.1567e-34 1.55337e-34 1.59959e-34 1.4373e-34 1.17397e-34 8.84501e-35 6.15721e-35 3.92192e-35 2.22332e-35 1.04035e-35 2.93547e-36 -1.197e-36 -3.01303e-36 -3.38711e-36 -2.98987e-36 -2.28355e-36 -1.5498e-36 -9.32179e-37 -4.80371e-37 -1.88653e-37 -2.49953e-38 4.96026e-38 7.02169e-38 6.33668e-38 4.6396e-38 2.89677e-38 1.53025e-38 6.32922e-39 1.35347e-39 -8.49072e-40 -1.43767e-39 -1.26756e-39 -8.61448e-40 -4.79076e-40 -2.10835e-40 -5.85373e-41 9.60952e-42 2.90095e-41 2.62428e-41 1.70679e-41 8.70327e-42 3.27949e-42 5.73089e-43 -3.96226e-43 -5.19619e-43 -3.59209e-43 -1.82346e-43 -6.58092e-44 -1.37103e-44 -0 0 0 0 0 0 0 0 0 0 0 0 0 0 0 0 0 0 0 0 0 0 0 0 0 0 0 0 0 0 0 0 0 0 0 0 0 0 0 0 0 0 0 0 0 0 0 0 0 0 0 0 0 0 0 0 0 0 0 0 0 0 0 0 0 0 0 0 0 0 0 0 0 0 0 0 0 0 0 0 0 0 0 0 0 0 0 0 0 0 0 0 0 0 0 0 0 0 0 0 0 0 0 0 0 0 0 0 0 0 0 0 0 0 0 0 0 0 0 0 0 0 0 0 0 0 0 0 0 0 0 0 0 0 0 0 0 0 0 0 0 0 0 0 0 0 0 0 0 0 0 0 0 0 0 0 0 0 0 0 0 0 0 0 0 0 0 0 0 0 0 0 0 0 0 0 0 0 0 0 0 0 0 0 0 0 0 0 0 0 0 0 0 0 0 0 0 0 0 0 0 0 
0 0 0 0 0 0 0 0 0 0 0 0 0 0 0 0 0 0 0 0 0 0 0 0 0 0 0 0 0 0 0 0 0 0 0 0 0 0 0 0 0 0 0 0 0 0 0 0 0 0 0 0 0 0 0 0 0 0 0 0 0 0 0 0 0 0 0 0 0 0 0 0 0 0 0 0 0 0 0 0 0 0 0 0 0 0 0 0 0 0 0 0 0 0 0 0 0 0 0 0 0 0 0 0 0 0 0 0 0 0 0 0 0 0 0 0 0 0 0 0 0 0 0 0 0 0 0 0 0 0 0 0 0 0 0 0 0 0 0 0 0 0 0 0 0 0 0 0 0 0 0 0 0 0 0 0 0 0 0 0 0 0 0 0 0 0 0 0 0 0 0 0 0 0 0 0 0 0 0 0 0 0 0 0 0 0 0 0 0 0 0 0 0 0 0 0 0 0 0 -0 -0 -2.06115e-44 -9.8935e-44 -2.48712e-43 -4.52078e-43 -5.89488e-43 -2.55582e-43 1.3315e-42 5.29577e-42 1.27118e-41 2.3192e-41 3.21731e-41 2.70285e-41 -1.72339e-41 -1.3924e-40 -3.83324e-40 -7.72441e-40 -1.25121e-39 -1.59184e-39 -1.27101e-39 6.44511e-40 5.51622e-39 1.49068e-38 2.99011e-38 4.97455e-38 6.96526e-38 7.7842e-38 5.23431e-38 -4.12198e-38 -2.48736e-37 -6.20549e-37 -1.19449e-36 -1.96538e-36 -2.83879e-36 -3.57024e-36 -3.69686e-36 -2.47654e-36 1.14003e-36 8.46933e-36 2.09433e-35 3.97998e-35 6.55768e-35 9.73892e-35 1.32005e-34 1.62789e-34 1.78636e-34 1.63111e-34 9.40487e-35 -5.60609e-35 -3.18555e-34 -7.25647e-34 -1.30581e-33 -2.07739e-33 -3.04064e-33 -4.16846e-33 -5.39652e-33 -6.61382e-33 -7.65453e-33 -8.29274e-33 -8.24102e-33 -7.15442e-33 -4.64018e-33 -2.74167e-34 6.37646e-33 1.57249e-32 2.81323e-32 4.38726e-32 6.30981e-32 8.58074e-32 1.11819e-31 1.40754e-31 1.72026e-31 2.04848e-31 2.38248e-31 2.71098e-31 3.02155e-31 3.30111e-31 3.53649e-31 3.71507e-31 3.82534e-31 3.85754e-31 3.80411e-31 3.66016e-31 3.42376e-31 3.09612e-31 2.68161e-31 2.18772e-31 1.62477e-31 1.00562e-31 3.4527e-32 -3.39724e-32 -1.03173e-31 -1.71263e-31 -2.3644e-31 -2.96967e-31 -3.51222e-31 -3.97751e-31 -4.35304e-31 -4.62872e-31 -4.79714e-31 -4.85379e-31 -4.79714e-31 -4.62872e-31 -4.35304e-31 -3.97751e-31 -3.51222e-31 -2.96967e-31 -2.3644e-31 -1.71263e-31 -1.03173e-31 -3.39724e-32 3.4527e-32 1.00562e-31 1.62477e-31 2.18772e-31 2.68161e-31 3.09612e-31 3.42376e-31 3.66016e-31 3.80411e-31 3.85754e-31 3.82534e-31 3.71507e-31 3.53649e-31 3.30111e-31 3.02155e-31 2.71098e-31 2.38248e-31 2.04848e-31 1.72026e-31 1.40754e-31 1.11819e-31 8.58074e-32 6.30981e-32 4.38726e-32 2.81323e-32 1.57249e-32 6.37646e-33 -2.74167e-34 -4.64018e-33 -7.15442e-33 -8.24102e-33 -8.29274e-33 -7.65453e-33 -6.61382e-33 -5.39652e-33 -4.16846e-33 -3.04064e-33 -2.07739e-33 -1.30581e-33 -7.25647e-34 -3.18555e-34 -5.60609e-35 9.40487e-35 1.63111e-34 1.78636e-34 1.62789e-34 1.32005e-34 9.73892e-35 6.55768e-35 3.97998e-35 2.09433e-35 8.46933e-36 1.14003e-36 -2.47654e-36 -3.69686e-36 -3.57024e-36 -2.83879e-36 -1.96538e-36 -1.19449e-36 -6.20549e-37 -2.48736e-37 -4.12198e-38 5.23431e-38 7.7842e-38 6.96526e-38 4.97455e-38 2.99011e-38 1.49068e-38 5.51622e-39 6.44511e-40 -1.27101e-39 -1.59184e-39 -1.25121e-39 -7.72441e-40 -3.83324e-40 -1.3924e-40 -1.72339e-41 2.70285e-41 3.21731e-41 2.3192e-41 1.27118e-41 5.29577e-42 1.3315e-42 -2.55582e-43 -5.89488e-43 -4.52078e-43 -2.48712e-43 -9.8935e-44 -2.06115e-44 -0 -0 0 0 0 0 0 0 0 0 0 0 0 0 0 0 0 0 0 0 0 0 0 0 0 0 0 0 0 0 0 0 0 0 0 0 0 0 0 0 0 0 0 0 0 0 0 0 0 0 0 0 0 0 0 0 0 0 0 0 0 0 0 0 0 0 0 0 0 0 0 0 0 0 0 0 0 0 0 0 0 0 0 0 0 0 0 0 0 0 0 0 0 0 0 0 0 0 0 0 0 0 0 0 0 0 0 0 0 0 0 0 0 0 0 0 0 0 0 0 0 0 0 0 0 0 0 0 0 0 0 0 0 0 0 0 0 0 0 0 0 0 0 0 0 0 0 0 0 0 0 0 0 0 0 0 0 0 0 0 0 0 0 0 0 0 0 0 0 0 0 0 0 0 0 0 0 0 0 0 0 0 0 0 0 0 0 0 0 0 0 0 0 0 0 0 0 0 0 0 
0 0 0 0 0 0 0 0 0 0 0 0 0 0 0 0 0 0 0 0 0 0 0 0 0 0 0 0 0 0 0 0 0 0 0 0 0 0 0 0 0 0 0 0 0 0 0 0 0 0 0 0 0 0 0 0 0 0 0 0 0 0 0 0 0 0 0 0 0 0 0 0 0 0 0 0 0 0 0 0 0 0 0 0 0 0 0 0 0 0 0 0 0 0 0 0 0 0 0 0 0 0 0 0 0 0 0 0 0 0 0 0 0 0 0 0 0 0 0 0 0 0 0 0 0 0 0 0 0 0 0 0 0 0 0 0 0 0 0 0 0 0 0 0 0 0 0 0 0 0 0 0 0 0 0 0 0 0 0 0 0 0 0 0 0 0 0 0 0 0 0 0 0 0 0 0 0 0 0 0 0 0 0 0 0 0 0 0 0 0 0 0 0 0 0 0 0 0 -0 -2.89172e-44 -1.198e-43 -3.05696e-43 -5.63197e-43 -6.63719e-43 -7.29816e-44 2.24315e-42 7.68096e-42 1.73021e-41 2.953e-41 3.63944e-41 1.79562e-41 -6.24708e-41 -2.56551e-40 -6.12329e-40 -1.12345e-39 -1.63207e-39 -1.68301e-39 -3.57618e-40 3.824e-39 1.27575e-38 2.80955e-38 4.9739e-38 7.31895e-38 8.57312e-38 6.20085e-38 -3.94277e-38 -2.75631e-37 -7.10275e-37 -1.39037e-36 -2.30274e-36 -3.3065e-36 -4.04328e-36 -3.83692e-36 -1.60919e-36 4.14377e-36 1.52504e-35 3.35591e-35 6.03485e-35 9.53858e-35 1.35613e-34 1.73514e-34 1.95344e-34 1.79516e-34 9.56397e-35 -9.52015e-35 -4.38189e-34 -9.79824e-34 -1.75966e-33 -2.79836e-33 -4.08214e-33 -5.54426e-33 -7.04487e-33 -8.3513e-33 -9.12162e-33 -8.89458e-33 -7.08965e-33 -3.02032e-33 4.07643e-33 1.49929e-32 3.04854e-32 5.11931e-32 7.75432e-32 1.09651e-31 1.47217e-31 1.89438e-31 2.3493e-31 2.81684e-31 3.27049e-31 3.67762e-31 4.00016e-31 4.1957e-31 4.21903e-31 4.02395e-31 3.56535e-31 2.80132e-31 1.69534e-31 2.18259e-32 -1.64999e-31 -3.91904e-31 -6.58727e-31 -9.64136e-31 -1.30565e-30 -1.67971e-30 -2.08177e-30 -2.50646e-30 -2.94778e-30 -3.39926e-30 -3.85417e-30 -4.30572e-30 -4.74723e-30 -5.17231e-30 -5.57493e-30 -5.94961e-30 -6.29142e-30 -6.59603e-30 -6.85977e-30 -7.07957e-30 -7.253e-30 -7.37817e-30 -7.45379e-30 -7.47908e-30 -7.45379e-30 -7.37817e-30 -7.253e-30 -7.07957e-30 -6.85977e-30 -6.59603e-30 -6.29142e-30 -5.94961e-30 -5.57493e-30 -5.17231e-30 -4.74723e-30 -4.30572e-30 -3.85417e-30 -3.39926e-30 -2.94778e-30 -2.50646e-30 -2.08177e-30 -1.67971e-30 -1.30565e-30 -9.64136e-31 -6.58727e-31 -3.91904e-31 -1.64999e-31 2.18259e-32 1.69534e-31 2.80132e-31 3.56535e-31 4.02395e-31 4.21903e-31 4.1957e-31 4.00016e-31 3.67762e-31 3.27049e-31 2.81684e-31 2.3493e-31 1.89438e-31 1.47217e-31 1.09651e-31 7.75432e-32 5.11931e-32 3.04854e-32 1.49929e-32 4.07643e-33 -3.02032e-33 -7.08965e-33 -8.89458e-33 -9.12162e-33 -8.3513e-33 -7.04487e-33 -5.54426e-33 -4.08214e-33 -2.79836e-33 -1.75966e-33 -9.79824e-34 -4.38189e-34 -9.52015e-35 9.56397e-35 1.79516e-34 1.95344e-34 1.73514e-34 1.35613e-34 9.53858e-35 6.03485e-35 3.35591e-35 1.52504e-35 4.14377e-36 -1.60919e-36 -3.83692e-36 -4.04328e-36 -3.3065e-36 -2.30274e-36 -1.39037e-36 -7.10275e-37 -2.75631e-37 -3.94277e-38 6.20085e-38 8.57312e-38 7.31895e-38 4.9739e-38 2.80955e-38 1.27575e-38 3.824e-39 -3.57618e-40 -1.68301e-39 -1.63207e-39 -1.12345e-39 -6.12329e-40 -2.56551e-40 -6.24708e-41 1.79562e-41 3.63944e-41 2.953e-41 1.73021e-41 7.68096e-42 2.24315e-42 -7.29816e-44 -6.63719e-43 -5.63197e-43 -3.05696e-43 -1.198e-43 -2.89172e-44 -0 0 0 0 0 0 0 0 0 0 0 0 0 0 0 0 0 0 0 0 0 0 0 0 0 0 0 0 0 0 0 0 0 0 0 0 0 0 0 0 0 0 0 0 0 0 0 0 0 0 0 0 0 0 0 0 0 0 0 0 0 0 0 0 0 0 0 0 0 0 0 0 0 0 0 0 0 0 0 0 0 0 0 0 0 0 0 0 0 0 0 0 0 0 0 0 0 0 0 0 0 0 0 0 0 0 0 0 0 0 0 0 0 0 0 0 0 0 0 0 0 0 0 0 0 0 0 0 0 0 0 0 0 0 0 0 0 0 0 0 0 0 0 0 0 0 0 0 0 0 0 0 0 0 0 0 0 0 0 0 0 0 0 0 0 0 0 0 0 0 0 0 0 0 0 0 0 0 0 0 0 0 0 0 0 0 0 0 0 0 0 0 0 0 0 0 0 0 
0 0 0 0 0 0 0 0 0 0 0 0 0 0 0 0 0 0 0 0 0 0 0 0 0 0 0 0 0 0 0 0 0 0 0 0 0 0 0 0 0 0 0 0 0 0 0 0 0 0 0 0 0 0 0 0 0 0 0 0 0 0 0 0 0 0 0 0 0 0 0 0 0 0 0 0 0 0 0 0 0 0 0 0 0 0 0 0 0 0 0 0 0 0 0 0 0 0 0 0 0 0 0 0 0 0 0 0 0 0 0 0 0 0 0 0 0 0 0 0 0 0 0 0 0 0 0 0 0 0 0 0 0 0 0 0 0 0 0 0 0 0 0 0 0 0 0 0 0 0 0 0 0 0 0 0 0 0 0 0 0 0 0 0 0 0 0 0 0 0 0 0 0 0 0 0 0 0 0 0 0 0 0 0 0 0 0 0 0 0 0 0 0 0 0 -0 -0 -3.03548e-44 -1.37976e-43 -3.55979e-43 -6.42969e-43 -7.09198e-43 1.53154e-43 3.2659e-42 1.02999e-41 2.21052e-41 3.55454e-41 3.80883e-41 6.00197e-43 -1.27184e-40 -4.09413e-40 -8.88323e-40 -1.49873e-39 -1.91642e-39 -1.35038e-39 1.65035e-39 9.19976e-39 2.35738e-38 4.57594e-38 7.25792e-38 9.21443e-38 7.80585e-38 -1.58972e-38 -2.56884e-37 -7.23757e-37 -1.479e-36 -2.51258e-36 -3.65099e-36 -4.43258e-36 -3.96602e-36 -8.12694e-37 7.03492e-36 2.19729e-35 4.62712e-35 8.1085e-35 1.24886e-34 1.71293e-34 2.06443e-34 2.06266e-34 1.34332e-34 -5.87525e-35 -4.33127e-34 -1.0532e-33 -1.97547e-33 -3.22962e-33 -4.79245e-33 -6.55535e-33 -8.28764e-33 -9.59962e-33 -9.9112e-33 -8.43337e-33 -4.17105e-33 4.04384e-33 1.74817e-32 3.74009e-32 6.4888e-32 1.00655e-31 1.44804e-31 1.96566e-31 2.54049e-31 3.14e-31 3.71622e-31 4.2047e-31 4.52444e-31 4.57909e-31 4.25938e-31 3.44694e-31 2.01931e-31 -1.44111e-32 -3.15535e-31 -7.11099e-31 -1.20855e-30 -1.8125e-30 -2.52429e-30 -3.34161e-30 -4.25837e-30 -5.26475e-30 -6.3475e-30 -7.49033e-30 -8.6746e-30 -9.88003e-30 -1.10856e-29 -1.22705e-29 -1.34147e-29 -1.45003e-29 -1.55118e-29 -1.64368e-29 -1.72664e-29 -1.79954e-29 -1.86222e-29 -1.91489e-29 -1.95804e-29 -1.99244e-29 -2.01906e-29 -2.03899e-29 -2.05337e-29 -2.06332e-29 -2.06986e-29 -2.07386e-29 -2.07598e-29 -2.07665e-29 -2.07598e-29 -2.07386e-29 -2.06986e-29 -2.06332e-29 -2.05337e-29 -2.03899e-29 -2.01906e-29 -1.99244e-29 -1.95804e-29 -1.91489e-29 -1.86222e-29 -1.79954e-29 -1.72664e-29 -1.64368e-29 -1.55118e-29 -1.45003e-29 -1.34147e-29 -1.22705e-29 -1.10856e-29 -9.88003e-30 -8.6746e-30 -7.49033e-30 -6.3475e-30 -5.26475e-30 -4.25837e-30 -3.34161e-30 -2.52429e-30 -1.8125e-30 -1.20855e-30 -7.11099e-31 -3.15535e-31 -1.44111e-32 2.01931e-31 3.44694e-31 4.25938e-31 4.57909e-31 4.52444e-31 4.2047e-31 3.71622e-31 3.14e-31 2.54049e-31 1.96566e-31 1.44804e-31 1.00655e-31 6.4888e-32 3.74009e-32 1.74817e-32 4.04384e-33 -4.17105e-33 -8.43337e-33 -9.9112e-33 -9.59962e-33 -8.28764e-33 -6.55535e-33 -4.79245e-33 -3.22962e-33 -1.97547e-33 -1.0532e-33 -4.33127e-34 -5.87525e-35 1.34332e-34 2.06266e-34 2.06443e-34 1.71293e-34 1.24886e-34 8.1085e-35 4.62712e-35 2.19729e-35 7.03492e-36 -8.12694e-37 -3.96602e-36 -4.43258e-36 -3.65099e-36 -2.51258e-36 -1.479e-36 -7.23757e-37 -2.56884e-37 -1.58972e-38 7.80585e-38 9.21443e-38 7.25792e-38 4.57594e-38 2.35738e-38 9.19976e-39 1.65035e-39 -1.35038e-39 -1.91642e-39 -1.49873e-39 -8.88323e-40 -4.09413e-40 -1.27184e-40 6.00197e-43 3.80883e-41 3.55454e-41 2.21052e-41 1.02999e-41 3.2659e-42 1.53154e-43 -7.09198e-43 -6.42969e-43 -3.55979e-43 -1.37976e-43 -3.03548e-44 -0 -0 0 0 0 0 0 0 0 0 0 0 0 0 0 0 0 0 0 0 0 0 0 0 0 0 0 0 0 0 0 0 0 0 0 0 0 0 0 0 0 0 0 0 0 0 0 0 0 0 0 0 0 0 0 0 0 0 0 0 0 0 0 0 0 0 0 0 0 0 0 0 0 0 0 0 0 0 0 0 0 0 0 0 0 0 0 0 0 0 0 0 0 0 0 0 0 0 0 0 0 0 0 0 0 0 0 0 0 0 0 0 0 0 0 0 0 0 0 0 0 0 0 0 0 0 0 0 0 0 0 0 0 0 0 0 0 0 0 0 0 0 0 0 0 0 0 0 0 0 0 0 0 0 0 0 0 0 0 0 0 0 0 0 0 0 0 0 0 0 0 0 0 0 0 0 0 0 0 0 0 0 0 0 0 0 0 0 0 0 0 0 0 0 0 0 