<?xml version="1.0"?>
<VTKFile type="ImageData" version="0.1" byte_order="LittleEndian">
<ImageData WholeExtent="0 599 0 599 0 0" Origin="0 0 0" Spacing="5 5 0">
<Piece Extent="0 599 0 599 0 0">
<PointData Scalars="Amplitude">
<DataArray type="Float32" Name="Amplitude" format="ascii">
0 0 0 0 0 0 0 0 0 0 0 0 0 0 0 0 0 0 0 0 0 0 0 0 0 0 0 0 0 0 0 0 0 0 0 0 0 0 0 0 0 0 0 0 0 0 0 0 0 0 0 0 0 0 0 0 0 0 0 0 0 0 0 0 0 0 0 0 0 0 0 0 0 0 0 0 0 0 0 0 0 0 0 0 0 0 0 0 0 0 0 0 0 0 0 0 0 0 0 0 0 0 0 0 0 0 0 0 0 0 0 0 0 0 0 0 0 0 0 0 0 0 0 0 0 0 0 0 0 0 0 0 0 0 0 0 0 0 0 0 0 0 0 0 0 0 0 0 0 0 0 0 0 0 0 0 0 0 0 0 0 0 0 0 0 0 0 0 0 0 0 0 0 0 0 0 0 0 0 0 0 0 0 0 0 0 0 0 0 0 0 0 0 0 0 0 0 0 0 0 0 0 0 0 0 0 0 0 0 0 0 0 0 0 0 0 0 0 0 0 0 0 0 0 0 0 0 0 0 0 0 0 0 0 0 0 0 0 0 0 0 0 0 0 0 0 0 0 0 0 0 0 0 0 0 0 0 0 0 0 0 0 0 0 0 0 0 0 0 0 0 0 0 0 0 0 0 0 0 0 0 0 0 0 0 0 0 0 0 0 0 0 0 0 0 0 0 0 0 0 0 0 0 0 0 0 0 0 0 0 0 0 0 0 0 0 0 0 0 0 0 0 0 0 0 0 0 0 0 0 0 0 0 0 0 0 0 0 0 0 0 0 0 0 0 0 0 0 0 0 0 0 0 0 0 0 0 0 0 0 0 0 0 0 0 0 0 0 0 0 0 0 0 0 0 0 0 0 0 0 0 0 0 0 0 0 0 0 0 0 0 0 0 0 0 0 0 0 0 0 0 0 0 0 0 0 0 0 0 0 0 0 0 0 0 0 0 0 0 0 0 0 0 0 0 0 0 0 0 0 0 0 0 0 0 0 0 0 0 0 0 0 0 0 0 0 0 0 0 0 0 0 0 0 0 0 0 0 0 0 0 0 0 0 0 0 0 0 0 0 0 0 0 0 0 0 0 0 0 0 0 0 0 0 0 0 0 0 0 0 0 0 0 0 0 0 0 0 0 0 0 0 0 0 0 0 0 0 0 0 0 0 0 0 0 0 0 0 0 0 0 0 0 0 0 0 0 0 0 0 0 0 0 0 0 0 0 0 0 0 0 0 0 0 0 0 0 0 0 0 0 0 0 0 0 0 0 0 0 0 0 0 0 0 0 0 0 0 0 0 0 0 0 0 0 0 0 0 0 0 0 0 0 0 0 0 0 0 0 0 0 0 0 0 0 0 0 0 0 0 
0 0 0 0 0 0 0 0 0 0 0 0 0 0 0 0 0 0 0 0 0 0 0 0 0 0 0 0 0 0 0 0 0 0 0 0 0 0 0 0 0 0 0 0 0 0 0 0 0 0 0 0 0 0 0 0 0 0 0 0 0 0 0 0 0 0 0 0 0 0 0 0 0 0 0 0 0 0 0 0 0 0 0 0 0 0 0 0 0 0 0 0 0 0 0 0 0 0 0 0 0 0 0 0 0 0 0 0 0 0 0 0 0 0 0 0 0 0 0 0 0 0 0 0 0 0 0 0 0 0 0 0 0 0 0 0 0 0 0 0 0 0 0 0 0 0 0 0 0 0 0 0 0 0 0 0 0 0 0 0 0 0 0 0 0 0 0 0 0 0 0 0 0 0 0 0 0 0 0 0 0 0 0 0 0 0 0 0 0 0 0 0 0 0 0 0 0 0 0 0 0 0 0 0 0 0 0 0 0 0 0 0 0 0 0 0 0 0 0 0 0 0 0 0 0 0 0 0 0 0 0 0 0 0 0 0 0 0 0 0 0 0 0 0 0 0 0 0 0 0 0 0 0 0 0 0 0 0 0 0 0 0 0 0 0 0 0 0 0 0 0 0 0 0 0 0 0 0 0 0 0 0 0 0 0 0 0 0 0 0 0 0 0 0 0 0 0 0 0 0 0 0 0 0 0 0 0 0 0 0 0 0 0 0 0 0 0 0 0 0 0 0 0 0 0 0 0 0 0 0 0 0 0 0 0 0 0 0 0 0 0 0 0 0 0 0 0 0 0 0 0 0 0 0 0 0 0 0 0 0 0 0 0 0 0 0 0 0 0 0 0 0 0 0 0 0 0 0 0 0 0 0 0 0 0 0 0 0 0 0 0 0 0 0 0 0 0 0 0 0 0 0 0 0 0 0 0 0 0 0 0 0 0 0 0 0 0 0 0 0 0 0 0 0 0 0 0 0 0 0 0 0 0 0 0 0 0 0 0 0 0 0 0 0 0 0 0 0 0 0 0 0 0 0 0 0 0 0 0 0 0 0 0 0 0 0 0 0 0 0 0 0 0 0 0 0 0 0 0 0 0 0 0 0 0 0 0 0 0 0 0 0 0 0 0 0 0 0 0 0 0 0 0 0 0 0 0 0 0 0 0 0 0 0 0 0 0 0 0 0 0 0 0 0 0 0 0 0 0 0 0 0 0 0 0 0 0 0 0 0 0 0 0 0 0 0 0 0 0 0 0 0 0 0 0 0 0 0 0 0 0 0 0 0 0 0 0 0 0 0 0 0 0 0 0 0 0 0 0 0 0 0 0 0 0 0 0 0 0 0 0 0 0 0 0 0 0 0 0 0 
0 0 3.52475e-08 7.53848e-08 1.10137e-07 1.53468e-07 2.01895e-07 2.5799e-07 3.19446e-07 3.91852e-07 4.92412e-07 6.11045e-07 7.29432e-07 8.62927e-07 1.01735e-06 1.19832e-06 1.38948e-06 1.52873e-06 1.6923e-06 1.90192e-06 2.09648e-06 2.29374e-06 2.46564e-06 2.66343e-06 2.88646e-06 3.03113e-06 3.16591e-06 3.30149e-06 3.41829e-06 3.59414e-06 3.73896e-06 3.85793e-06 3.99211e-06 4.10582e-06 4.27159e-06 4.41115e-06 4.52493e-06 4.67393e-06 4.85821e-06 5.04743e-06 5.15572e-06 5.25422e-06 5.41704e-06 5.51354e-06 5.60571e-06 5.75177e-06 5.82863e-06 5.91266e-06 6.04971e-06 6.15917e-06 6.28805e-06 6.37605e-06 6.48148e-06 6.62245e-06 6.68384e-06 6.8027e-06 6.92128e-06 7.05138e-06 7.17484e-06 7.22219e-06 7.28421e-06 7.37736e-06 7.44746e-06 7.53278e-06 7.60715e-06 7.67954e-06 7.74927e-06 7.76854e-06 7.79509e-06 7.7917e-06 7.80065e-06 7.75781e-06 7.72249e-06 7.72811e-06 7.72246e-06 7.69937e-06 7.62419e-06 7.49153e-06 7.37436e-06 7.29071e-06 7.17938e-06 7.06154e-06 6.87101e-06 6.68153e-06 6.49869e-06 6.2719e-06 6.03621e-06 5.76504e-06 5.47453e-06 5.14014e-06 4.82157e-06 4.45908e-06 4.05884e-06 3.66497e-06 3.20314e-06 2.70029e-06 2.14198e-06 1.54413e-06 9.30959e-07 2.8672e-07 -3.88189e-07 -1.11681e-06 -1.9236e-06 -2.76348e-06 -3.62439e-06 -4.53952e-06 -5.57339e-06 -6.71291e-06 -7.96411e-06 -9.31708e-06 -1.06323e-05 -1.20877e-05 -1.35607e-05 -1.50889e-05 -1.66871e-05 -1.83993e-05 -2.02523e-05 -2.21768e-05 -2.4253e-05 -2.63768e-05 -2.8614e-05 -3.0986e-05 -3.34934e-05 -3.61401e-05 -3.8859e-05 -4.17581e-05 -4.48232e-05 -4.80261e-05 -5.14354e-05 -5.49266e-05 -5.86241e-05 -6.24772e-05 -6.65306e-05 -7.077e-05 -7.51455e-05 -7.97518e-05 -8.45889e-05 -8.96147e-05 -9.48718e-05 -0.000100292 -0.000105923 -0.000111712 -0.000117703 -0.000123906 -0.000130358 -0.000136994 -0.000143816 -0.000150822 -0.000157983 -0.000165321 -0.00017287 -0.000180573 -0.000188509 -0.000196616 -0.000204884 -0.00021334 -0.000221904 -0.000230596 -0.000239408 -0.000248398 -0.000257546 -0.000266853 -0.000276288 -0.000285771 -0.000295346 -0.00030491 -0.000314495 -0.000324071 -0.000333576 -0.000342937 -0.000352113 -0.000360941 -0.000369374 -0.000377325 -0.000384511 -0.000390847 -0.000395977 -0.000399602 -0.000401277 -0.000400476 -0.000396583 -0.000388846 -0.000376377 -0.000358192 -0.000333288 -0.00030059 -0.000259254 -0.000208527 -0.000148057 -7.77847e-05 2.08586e-06 9.0897e-05 0.000187827 0.000291768 0.000401488 0.000515597 0.000632504 0.000750343 0.000867089 0.000980535 0.0010883 0.00118783 0.00127654 0.00135208 0.00141229 0.00145542 0.00148004 0.00148534 0.0014707 0.00143618 0.00138213 0.00130927 0.00121869 0.00111196 0.000990799 0.000857386 0.000713992 0.000563266 0.00040791 0.000250765 9.47688e-05 -5.72095e-05 -0.000202433 -0.000338402 -0.000462807 -0.000573583 -0.000669007 -0.00074772 -0.000808788 -0.000851709 -0.000876389 -0.000883267 -0.000873178 -0.00084747 -0.000807854 -0.000756565 -0.000696025 -0.000629003 -0.000558132 -0.000486122 -0.000415423 -0.000348128 -0.000285949 -0.000230117 -0.000181311 -0.000139851 -0.000105542 -7.78925e-05 -5.62515e-05 -3.97389e-05 -2.74316e-05 -1.85478e-05 -1.23207e-05 -8.0759e-06 -5.26611e-06 -3.47824e-06 -2.39076e-06 -1.72408e-06 -1.29661e-06 -1.05127e-06 -9.34741e-07 -8.78969e-07 -8.21013e-07 -7.61498e-07 -7.3954e-07 -7.5928e-07 -7.29237e-07 -7.49297e-07 -7.27735e-07 -7.2027e-07 -7.1745e-07 -7.30272e-07 -7.11617e-07 -7.42662e-07 -7.45607e-07 -7.62782e-07 -7.50546e-07 -7.5698e-07 -7.03725e-07 -6.6026e-07 -6.48455e-07 -6.45058e-07 -6.5213e-07 -6.26506e-07 -6.20911e-07 -6.13405e-07 -6.20229e-07 -6.15728e-07 -6.26295e-07 -6.41391e-07 -6.02084e-07 -6.14915e-07 -6.32281e-07 -6.33819e-07 -6.12434e-07 -6.13503e-07 -6.42508e-07 -6.73735e-07 -7.13908e-07 -7.33857e-07 -7.42796e-07 -7.33715e-07 -7.16224e-07 -6.81227e-07 -6.55294e-07 -6.28111e-07 -6.23665e-07 -6.38894e-07 -6.33211e-07 -6.16294e-07 -6.06869e-07 -6.48417e-07 -6.31582e-07 -6.17734e-07 -6.23614e-07 -6.25255e-07 -6.43079e-07 -6.53214e-07 -6.75396e-07 -6.62093e-07 -6.62534e-07 -6.74167e-07 -7.15425e-07 -7.63909e-07 -7.55497e-07 -7.71652e-07 -7.58596e-07 -7.52443e-07 -7.14243e-07 -7.31239e-07 -7.24092e-07 -7.3861e-07 -7.70041e-07 -8.40031e-07 -9.09559e-07 -1.09456e-06 -1.32701e-06 -1.73737e-06 -2.36973e-06 -3.24622e-06 -4.43065e-06 -6.02927e-06 -8.12134e-06 -1.07354e-05 -1.38417e-05 -1.74452e-05 -2.15575e-05 -2.61547e-05 -3.12617e-05 -3.70592e-05 -4.39344e-05 -5.24966e-05 -6.35554e-05 -7.82845e-05 -9.80367e-05 -0.000124111 -0.000157734 -0.000199823 -0.000250665 -0.000310016 -0.000376821 -0.000449242 -0.00052482 -0.000600596 -0.000673274 -0.000739646 -0.00079648 -0.000841039 -0.00087088 -0.000884173 -0.000879617 -0.000856548 -0.000814672 -0.000754186 -0.000675721 -0.000580352 -0.00046954 -0.000345048 -0.000208952 -6.35226e-05 8.87803e-05 0.000245274 0.000403186 0.00055968 0.000711971 0.000857394 0.000993294 0.00111728 0.00122695 0.00132032 0.00139559 0.00145134 0.0014865 0.00150055 0.00149346 0.00146596 0.00141914 0.00135478 0.00127492 0.00118195 0.0010783 0.000966453 0.000848759 0.000727434 0.000604637 0.000482476 0.000363092 0.000248567 0.000140878 4.17956e-05 -4.72031e-05 -0.000125167 -0.000191572 -0.000246603 -0.000290867 -0.000325282 -0.000351084 -0.000369511 -0.000381937 -0.000389505 -0.000393203 -0.00039387 -0.000392174 -0.000388603 -0.000383575 -0.000377432 -0.000370349 -0.00036265 -0.000354411 -0.000345838 -0.000336959 -0.000327841 -0.00031862 -0.000309317 -0.000300034 -0.000290768 -0.000281526 -0.000272338 -0.000263283 -0.000254302 -0.0002455 -0.000236873 -0.000228386 -0.000220078 -0.000211905 -0.000203855 -0.000195911 -0.00018815 -0.000180543 -0.0001731 -0.000165877 -0.000158807 -0.000151932 -0.000145216 -0.000138635 -0.000132202 -0.000125951 -0.00011986 -0.000113979 -0.000108326 -0.000102856 -9.75245e-05 -9.24036e-05 -8.74161e-05 -8.26617e-05 -7.80845e-05 -7.37045e-05 -6.95543e-05 -6.55079e-05 -6.16249e-05 -5.79496e-05 -5.44022e-05 -5.10627e-05 -4.78067e-05 -4.47378e-05 -4.18051e-05 -3.90242e-05 -3.64088e-05 -3.38573e-05 -3.14341e-05 -2.91353e-05 -2.69596e-05 -2.48977e-05 -2.28708e-05 -2.09961e-05 -1.91862e-05 -1.75106e-05 -1.59558e-05 -1.4462e-05 -1.30389e-05 -1.1631e-05 -1.03561e-05 -9.04356e-06 -7.8181e-06 -6.70621e-06 -5.69656e-06 -4.78702e-06 -3.92567e-06 -3.07839e-06 -2.26485e-06 -1.51784e-06 -8.29116e-07 -1.64514e-07 4.56078e-07 1.05823e-06 1.63396e-06 2.14673e-06 2.62852e-06 3.02698e-06 3.44125e-06 3.81466e-06 4.15233e-06 4.50728e-06 4.81042e-06 5.09829e-06 5.34849e-06 5.59945e-06 5.80178e-06 6.01612e-06 6.21895e-06 6.35415e-06 6.47644e-06 6.58181e-06 6.71861e-06 6.87605e-06 6.96956e-06 7.01129e-06 7.03923e-06 7.04847e-06 7.11084e-06 7.16742e-06 7.18578e-06 7.20137e-06 7.1988e-06 7.18406e-06 7.13371e-06 7.06877e-06 7.01705e-06 6.93974e-06 6.88921e-06 6.80847e-06 6.7647e-06 6.73383e-06 6.62842e-06 6.51825e-06 6.41043e-06 6.30958e-06 6.25927e-06 6.13719e-06 6.04175e-06 5.97567e-06 5.85856e-06 5.76667e-06 5.64094e-06 5.5692e-06 5.49978e-06 5.36484e-06 5.28476e-06 5.20072e-06 5.04935e-06 4.95978e-06 4.86381e-06 4.68695e-06 4.51127e-06 4.36715e-06 4.26121e-06 4.13119e-06 3.9712e-06 3.86494e-06 3.73369e-06 3.62635e-06 3.48572e-06 3.32073e-06 3.19578e-06 3.06792e-06 2.93252e-06 2.79168e-06 2.56878e-06 2.37853e-06 2.21052e-06 2.01826e-06 1.82792e-06 1.62711e-06 1.4745e-06 1.3418e-06 1.15605e-06 9.77921e-07 8.28748e-07 6.99893e-07 5.88456e-07 4.72756e-07 3.76388e-07 3.08231e-07 2.4914e-07 1.95319e-07 1.48407e-07 1.02038e-07 4.68375e-08 0 0 
0 0 7.53848e-08 1.66299e-07 2.40267e-07 3.20446e-07 4.16326e-07 5.36344e-07 6.75537e-07 8.35136e-07 1.02333e-06 1.24256e-06 1.49848e-06 1.79716e-06 2.10938e-06 2.4551e-06 2.82892e-06 3.16841e-06 3.5397e-06 3.92581e-06 4.32477e-06 4.72801e-06 5.11757e-06 5.56439e-06 5.9047e-06 6.20041e-06 6.52401e-06 6.79864e-06 7.11069e-06 7.42016e-06 7.68913e-06 8.01296e-06 8.32857e-06 8.63053e-06 8.92193e-06 9.18427e-06 9.47508e-06 9.79103e-06 1.01003e-05 1.03581e-05 1.06009e-05 1.08896e-05 1.11419e-05 1.13203e-05 1.15448e-05 1.17788e-05 1.19768e-05 1.22562e-05 1.25041e-05 1.2745e-05 1.30344e-05 1.32548e-05 1.35041e-05 1.36787e-05 1.38599e-05 1.41221e-05 1.4376e-05 1.4612e-05 1.48018e-05 1.49822e-05 1.51573e-05 1.52797e-05 1.54234e-05 1.55634e-05 1.56766e-05 1.57802e-05 1.58477e-05 1.59361e-05 1.60011e-05 1.60572e-05 1.60661e-05 1.60222e-05 1.60225e-05 1.60258e-05 1.59713e-05 1.58476e-05 1.56607e-05 1.55081e-05 1.5334e-05 1.51456e-05 1.49299e-05 1.46795e-05 1.43769e-05 1.40284e-05 1.35974e-05 1.31194e-05 1.25984e-05 1.20503e-05 1.14632e-05 1.08491e-05 1.02011e-05 9.46446e-06 8.68494e-06 7.82795e-06 6.87552e-06 5.8626e-06 4.76334e-06 3.63283e-06 2.39373e-06 1.11834e-06 -2.96718e-07 -1.82998e-06 -3.44013e-06 -5.16021e-06 -6.98511e-06 -8.96188e-06 -1.10799e-05 -1.34022e-05 -1.5874e-05 -1.83877e-05 -2.1078e-05 -2.39142e-05 -2.6879e-05 -3.00621e-05 -3.33803e-05 -3.6937e-05 -4.06446e-05 -4.46033e-05 -4.87828e-05 -5.31037e-05 -5.77321e-05 -6.2574e-05 -6.77206e-05 -7.30587e-05 -7.86837e-05 -8.46329e-05 -9.08261e-05 -9.7369e-05 -0.000104196 -0.000111381 -0.000118906 -0.000126794 -0.000135069 -0.000143669 -0.000152644 -0.000162062 -0.000171866 -0.000182108 -0.000192741 -0.000203821 -0.000215366 -0.000227265 -0.000239622 -0.000252362 -0.000265502 -0.000279048 -0.000293009 -0.000307336 -0.000322036 -0.000337171 -0.000352647 -0.000368525 -0.000384799 -0.000401369 -0.000418324 -0.000435603 -0.000453145 -0.000471017 -0.000489217 -0.000507762 -0.000526561 -0.000545673 -0.000564999 -0.000584554 -0.000604309 -0.000624117 -0.000643952 -0.000663731 -0.000683377 -0.000702758 -0.000721778 -0.000740214 -0.000757912 -0.000774523 -0.000789797 -0.000803272 -0.000814492 -0.000822779 -0.000827291 -0.00082703 -0.000820705 -0.000806899 -0.000783781 -0.000749413 -0.000701619 -0.00063837 -0.000557781 -0.000458301 -0.000338911 -0.000199296 -3.98109e-05 0.000138514 0.000334028 0.000544642 0.000767844 0.00100084 0.00124044 0.00148303 0.00172453 0.0019605 0.00218603 0.00239598 0.00258511 0.00274834 0.00288116 0.00297966 0.00304082 0.00306242 0.00304328 0.00298311 0.00288244 0.00274256 0.00256558 0.00235434 0.00211237 0.00184388 0.00155354 0.00124657 0.000928526 0.000605277 0.000282752 -3.30541e-05 -0.000336568 -0.000622335 -0.000885498 -0.00112163 -0.00132708 -0.0014988 -0.00163465 -0.00173335 -0.0017945 -0.00181871 -0.00180742 -0.00176312 -0.00168922 -0.00158995 -0.00147029 -0.00133566 -0.00119161 -0.00104372 -0.000897165 -0.000756468 -0.000625332 -0.000506547 -0.000401856 -0.000312135 -0.000237311 -0.000176532 -0.000128434 -9.1349e-05 -6.35483e-05 -4.32751e-05 -2.89516e-05 -1.90981e-05 -1.24997e-05 -8.20855e-06 -5.5396e-06 -3.88812e-06 -2.94056e-06 -2.33987e-06 -1.94674e-06 -1.71952e-06 -1.59324e-06 -1.54356e-06 -1.51789e-06 -1.47961e-06 -1.45984e-06 -1.4837e-06 -1.48513e-06 -1.44762e-06 -1.40662e-06 -1.41797e-06 -1.40994e-06 -1.43236e-06 -1.45728e-06 -1.47781e-06 -1.45649e-06 -1.42815e-06 -1.35769e-06 -1.3487e-06 -1.34428e-06 -1.38081e-06 -1.36526e-06 -1.37694e-06 -1.34732e-06 -1.31869e-06 -1.29935e-06 -1.27372e-06 -1.26403e-06 -1.30147e-06 -1.29033e-06 -1.30723e-06 -1.37073e-06 -1.39679e-06 -1.39258e-06 -1.42864e-06 -1.47067e-06 -1.56096e-06 -1.58637e-06 -1.58884e-06 -1.56244e-06 -1.58927e-06 -1.59128e-06 -1.57561e-06 -1.49461e-06 -1.45327e-06 -1.40995e-06 -1.40782e-06 -1.38165e-06 -1.32147e-06 -1.3059e-06 -1.31237e-06 -1.26612e-06 -1.27313e-06 -1.31076e-06 -1.3512e-06 -1.39518e-06 -1.42606e-06 -1.40694e-06 -1.41698e-06 -1.37951e-06 -1.38111e-06 -1.38181e-06 -1.44379e-06 -1.47077e-06 -1.49731e-06 -1.4787e-06 -1.44691e-06 -1.41627e-06 -1.42386e-06 -1.42507e-06 -1.499e-06 -1.60112e-06 -1.71961e-06 -1.91571e-06 -2.31262e-06 -2.94938e-06 -3.87686e-06 -5.24424e-06 -7.23831e-06 -9.99861e-06 -1.36555e-05 -1.82599e-05 -2.38709e-05 -3.06106e-05 -3.83655e-05 -4.71361e-05 -5.68768e-05 -6.77625e-05 -8.02988e-05 -9.54351e-05 -0.000114533 -0.000139544 -0.00017284 -0.000217148 -0.000275221 -0.000349426 -0.00044126 -0.000551013 -0.00067767 -0.000818606 -0.000969729 -0.0011257 -0.00128026 -0.00142663 -0.00155814 -0.0016685 -0.00175212 -0.00180439 -0.00182181 -0.00180204 -0.00174391 -0.00164708 -0.00151222 -0.00134092 -0.00113558 -0.000899371 -0.000635998 -0.000349899 -4.58955e-05 0.000270668 0.000594384 0.000919447 0.0012401 0.00155058 0.00184539 0.00211917 0.00236701 0.00258424 0.00276681 0.0029112 0.00301469 0.00307546 0.00309271 0.0030668 0.00299924 0.00289287 0.0027514 0.00257932 0.00238149 0.00216306 0.001929 0.00168409 0.00143296 0.00117995 0.00092947 0.000685838 0.000453341 0.00023595 3.71639e-05 -0.000140317 -0.000294749 -0.000425542 -0.000533206 -0.000619139 -0.000685462 -0.000734712 -0.000769573 -0.000792564 -0.000806055 -0.000811985 -0.000812067 -0.000807503 -0.000799336 -0.000788336 -0.000775144 -0.000760282 -0.000744105 -0.000726965 -0.00070899 -0.00069052 -0.000671688 -0.000652633 -0.000633456 -0.00061426 -0.00059508 -0.000576047 -0.000557155 -0.000538489 -0.000520127 -0.000502024 -0.000484225 -0.000466706 -0.000449562 -0.000432751 -0.000416272 -0.000400066 -0.000384176 -0.000368642 -0.000353388 -0.000338523 -0.000324021 -0.000309806 -0.000295983 -0.000282494 -0.000269334 -0.000256562 -0.00024416 -0.000232147 -0.000220485 -0.000209229 -0.000198315 -0.000187824 -0.000177734 -0.00016802 -0.000158689 -0.000149743 -0.000141214 -0.000133021 -0.000125155 -0.000117633 -0.000110443 -0.000103566 -9.70102e-05 -9.07245e-05 -8.47692e-05 -7.90425e-05 -7.36213e-05 -6.84743e-05 -6.349e-05 -5.87975e-05 -5.43096e-05 -5.0112e-05 -4.60676e-05 -4.22269e-05 -3.86323e-05 -3.51854e-05 -3.19516e-05 -2.88574e-05 -2.59657e-05 -2.31964e-05 -2.05642e-05 -1.80959e-05 -1.56653e-05 -1.33622e-05 -1.12491e-05 -9.27648e-06 -7.44208e-06 -5.71963e-06 -4.10286e-06 -2.56578e-06 -1.14409e-06 1.49893e-07 1.39428e-06 2.54928e-06 3.66248e-06 4.71217e-06 5.68697e-06 6.57726e-06 7.39409e-06 8.16334e-06 8.85296e-06 9.49553e-06 1.01169e-05 1.06934e-05 1.12459e-05 1.17492e-05 1.22086e-05 1.25926e-05 1.29349e-05 1.32212e-05 1.34761e-05 1.36987e-05 1.39087e-05 1.41027e-05 1.43218e-05 1.44868e-05 1.45741e-05 1.46139e-05 1.46437e-05 1.47305e-05 1.47575e-05 1.4739e-05 1.47118e-05 1.46573e-05 1.46332e-05 1.45638e-05 1.4497e-05 1.43835e-05 1.4285e-05 1.41875e-05 1.40541e-05 1.3898e-05 1.37478e-05 1.35384e-05 1.33243e-05 1.30856e-05 1.29369e-05 1.27824e-05 1.25617e-05 1.23619e-05 1.21034e-05 1.18842e-05 1.16656e-05 1.14063e-05 1.12275e-05 1.10081e-05 1.08047e-05 1.06444e-05 1.04162e-05 1.0143e-05 9.91978e-06 9.67688e-06 9.39077e-06 9.08682e-06 8.81345e-06 8.56512e-06 8.2917e-06 8.00322e-06 7.70253e-06 7.38831e-06 7.13464e-06 6.83441e-06 6.52857e-06 6.2707e-06 5.97146e-06 5.6864e-06 5.36012e-06 4.92469e-06 4.55402e-06 4.16222e-06 3.77841e-06 3.40507e-06 3.05118e-06 2.72686e-06 2.36779e-06 2.03297e-06 1.73278e-06 1.44359e-06 1.19711e-06 9.85521e-07 8.04451e-07 6.53123e-07 5.18881e-07 4.03263e-07 3.08957e-07 2.21527e-07 1.02909e-07 0 0 
0 0 1.10137e-07 2.40267e-07 3.38504e-07 4.30347e-07 5.5485e-07 7.10965e-07 8.76485e-07 1.06562e-06 1.29646e-06 1.56724e-06 1.89706e-06 2.25426e-06 2.59628e-06 3.02381e-06 3.41722e-06 3.78139e-06 4.24596e-06 4.67632e-06 5.16666e-06 5.59516e-06 6.11559e-06 6.61453e-06 6.86881e-06 7.29735e-06 7.66861e-06 7.99863e-06 8.44753e-06 8.75484e-06 9.12625e-06 9.58346e-06 9.9414e-06 1.02977e-05 1.06043e-05 1.0932e-05 1.13394e-05 1.17107e-05 1.20201e-05 1.22466e-05 1.25852e-05 1.29294e-05 1.31008e-05 1.32785e-05 1.36348e-05 1.38594e-05 1.418e-05 1.45879e-05 1.48127e-05 1.51974e-05 1.55181e-05 1.57456e-05 1.60392e-05 1.61487e-05 1.65319e-05 1.69089e-05 1.72147e-05 1.74539e-05 1.76579e-05 1.79223e-05 1.8089e-05 1.82457e-05 1.84749e-05 1.86295e-05 1.87502e-05 1.88721e-05 1.89526e-05 1.9144e-05 1.91999e-05 1.93266e-05 1.92522e-05 1.92829e-05 1.939e-05 1.9408e-05 1.93125e-05 1.91011e-05 1.89582e-05 1.88745e-05 1.87087e-05 1.85576e-05 1.83528e-05 1.81119e-05 1.77803e-05 1.73632e-05 1.68346e-05 1.63099e-05 1.5763e-05 1.51889e-05 1.45843e-05 1.39575e-05 1.32221e-05 1.23952e-05 1.1553e-05 1.05591e-05 9.50573e-06 8.3773e-06 7.23818e-06 5.99003e-06 4.6756e-06 3.23757e-06 1.62904e-06 -8.28274e-08 -1.83848e-06 -3.79399e-06 -5.88781e-06 -8.15487e-06 -1.06098e-05 -1.32592e-05 -1.59144e-05 -1.85839e-05 -2.16434e-05 -2.47044e-05 -2.81189e-05 -3.16893e-05 -3.54885e-05 -3.95161e-05 -4.37122e-05 -4.82956e-05 -5.29204e-05 -5.78441e-05 -6.3116e-05 -6.86336e-05 -7.4467e-05 -8.04454e-05 -8.69319e-05 -9.3677e-05 -0.000100712 -0.000108222 -0.000115905 -0.000124149 -0.000132641 -0.000141631 -0.000151026 -0.000160805 -0.000171127 -0.000181952 -0.000193175 -0.00020492 -0.00021709 -0.000229921 -0.00024316 -0.000256877 -0.000271109 -0.000285852 -0.000301065 -0.000316824 -0.000333014 -0.000349571 -0.000366707 -0.000384356 -0.000402331 -0.000420967 -0.000439933 -0.000459278 -0.000479126 -0.000499309 -0.000519868 -0.000540866 -0.000562323 -0.000584149 -0.000606326 -0.000628875 -0.000651777 -0.000675013 -0.000698401 -0.000722015 -0.000745734 -0.000769452 -0.000793144 -0.00081669 -0.000839956 -0.000862861 -0.000885114 -0.000906351 -0.000926456 -0.000944879 -0.000961335 -0.000975143 -0.000985449 -0.000991411 -0.00099176 -0.000985073 -0.000969502 -0.000942772 -0.000902545 -0.000846283 -0.000771336 -0.000675376 -0.000556436 -0.00041336 -0.000245783 -5.41477e-05 0.000160197 0.000395241 0.000648424 0.000916811 0.00119699 0.0014853 0.00177735 0.00206835 0.00235278 0.00262473 0.00287795 0.00310585 0.00330253 0.00346226 0.00358056 0.00365345 0.00367881 0.00365499 0.00358178 0.00345978 0.00329072 0.00307691 0.00282202 0.00253018 0.00220649 0.00185657 0.00148668 0.00110371 0.000714516 0.000326516 -5.34211e-05 -0.000418184 -0.000761453 -0.00107726 -0.00136046 -0.00160643 -0.0018117 -0.00197371 -0.0020909 -0.00216271 -0.00218984 -0.00217407 -0.00211854 -0.00202729 -0.00190568 -0.00175955 -0.00159561 -0.00142067 -0.00124151 -0.00106442 -0.000894816 -0.000737202 -0.000594956 -0.000470178 -0.000363727 -0.0002753 -0.000203672 -0.000147277 -0.000104182 -7.20445e-05 -4.88281e-05 -3.253e-05 -2.13684e-05 -1.39467e-05 -9.12938e-06 -6.13691e-06 -4.46048e-06 -3.39564e-06 -2.62905e-06 -2.15862e-06 -1.92143e-06 -1.83396e-06 -1.7756e-06 -1.66565e-06 -1.67577e-06 -1.63682e-06 -1.71219e-06 -1.6346e-06 -1.60577e-06 -1.6083e-06 -1.68996e-06 -1.66739e-06 -1.71912e-06 -1.68032e-06 -1.70844e-06 -1.60224e-06 -1.5758e-06 -1.60188e-06 -1.6195e-06 -1.62608e-06 -1.56926e-06 -1.57169e-06 -1.57197e-06 -1.53669e-06 -1.48685e-06 -1.50899e-06 -1.53303e-06 -1.59286e-06 -1.65029e-06 -1.60546e-06 -1.64044e-06 -1.63362e-06 -1.69862e-06 -1.7559e-06 -1.8309e-06 -1.90517e-06 -1.87945e-06 -1.85375e-06 -1.83903e-06 -1.85891e-06 -1.89231e-06 -1.9273e-06 -1.85568e-06 -1.77178e-06 -1.70539e-06 -1.64556e-06 -1.66891e-06 -1.64546e-06 -1.68375e-06 -1.60346e-06 -1.52472e-06 -1.50812e-06 -1.51717e-06 -1.59501e-06 -1.63373e-06 -1.61788e-06 -1.60408e-06 -1.665e-06 -1.66407e-06 -1.63822e-06 -1.5963e-06 -1.61648e-06 -1.73144e-06 -1.7119e-06 -1.74193e-06 -1.67288e-06 -1.68989e-06 -1.62064e-06 -1.65396e-06 -1.75424e-06 -1.9581e-06 -2.11434e-06 -2.56706e-06 -3.22991e-06 -4.36053e-06 -5.91519e-06 -8.14734e-06 -1.13427e-05 -1.56736e-05 -2.12164e-05 -2.79073e-05 -3.58208e-05 -4.51644e-05 -5.57062e-05 -6.73156e-05 -8.01558e-05 -9.47217e-05 -0.000112092 -0.000133933 -0.000162466 -0.000200787 -0.000252116 -0.000319736 -0.000406803 -0.00051545 -0.000646294 -0.000798208 -0.00096807 -0.00115088 -0.00134016 -0.00152825 -0.00170686 -0.00186771 -0.00200299 -0.00210614 -0.00217135 -0.00219445 -0.00217254 -0.00210421 -0.0019891 -0.00182814 -0.0016232 -0.00137722 -0.0010939 -0.000777826 -0.000434161 -6.88514e-05 0.000311903 0.000701221 0.00109248 0.00147848 0.00185252 0.00220778 0.0025379 0.00283693 0.00309925 0.00332007 0.00349492 0.00362064 0.00369482 0.00371647 0.00368588 0.00360506 0.00347697 0.00330651 0.00309893 0.00286045 0.00259711 0.00231513 0.00202024 0.00171791 0.00141348 0.00111196 0.000818595 0.000538456 0.000276537 3.70984e-05 -0.000176493 -0.00036207 -0.000518809 -0.00064737 -0.000749539 -0.000827891 -0.000885595 -0.000926008 -0.000952438 -0.000967594 -0.000973768 -0.000973067 -0.000967077 -0.000956877 -0.000943432 -0.000927359 -0.000909312 -0.000889852 -0.000869164 -0.000847647 -0.000825346 -0.0008027 -0.000779867 -0.000756856 -0.000733886 -0.000710964 -0.000688162 -0.00066566 -0.000643364 -0.000621253 -0.000599594 -0.000578242 -0.000557247 -0.000536678 -0.000516488 -0.000496746 -0.000477475 -0.00045859 -0.000439993 -0.000421859 -0.000404113 -0.00038665 -0.000369774 -0.000353168 -0.000337031 -0.000321407 -0.000306135 -0.000291267 -0.000276916 -0.000263055 -0.0002496 -0.000236615 -0.000224104 -0.000211903 -0.000200354 -0.000189177 -0.000178472 -0.000168199 -0.000158359 -0.000149071 -0.00014014 -0.000131529 -0.000123423 -0.000115493 -0.00010809 -0.000100873 -9.40981e-05 -8.75976e-05 -8.13432e-05 -7.55611e-05 -6.98947e-05 -6.4548e-05 -5.94171e-05 -5.46525e-05 -5.0202e-05 -4.57428e-05 -4.17116e-05 -3.77943e-05 -3.4096e-05 -3.06305e-05 -2.7275e-05 -2.42805e-05 -2.12491e-05 -1.85944e-05 -1.59563e-05 -1.32906e-05 -1.08204e-05 -8.55409e-06 -6.45628e-06 -4.51458e-06 -2.74542e-06 -1.05769e-06 5.72067e-07 2.00801e-06 3.35024e-06 4.64932e-06 5.79687e-06 6.97912e-06 8.02771e-06 9.08412e-06 9.96035e-06 1.08417e-05 1.16146e-05 1.22629e-05 1.29192e-05 1.35224e-05 1.41161e-05 1.4657e-05 1.52191e-05 1.56743e-05 1.607e-05 1.63611e-05 1.66265e-05 1.68079e-05 1.7017e-05 1.71324e-05 1.73263e-05 1.75775e-05 1.7718e-05 1.77609e-05 1.76839e-05 1.77168e-05 1.78236e-05 1.77638e-05 1.77351e-05 1.76025e-05 1.75522e-05 1.74904e-05 1.74084e-05 1.7302e-05 1.71144e-05 1.69946e-05 1.68721e-05 1.66324e-05 1.64815e-05 1.62558e-05 1.60178e-05 1.56511e-05 1.53286e-05 1.52185e-05 1.49767e-05 1.47433e-05 1.44756e-05 1.40923e-05 1.39128e-05 1.35204e-05 1.32344e-05 1.30078e-05 1.26819e-05 1.25074e-05 1.23698e-05 1.2037e-05 1.17214e-05 1.15003e-05 1.12248e-05 1.08651e-05 1.04735e-05 1.01574e-05 9.87585e-06 9.52969e-06 9.20051e-06 8.74411e-06 8.39629e-06 8.08994e-06 7.67598e-06 7.35714e-06 7.01398e-06 6.60541e-06 6.372e-06 5.88375e-06 5.3872e-06 4.97753e-06 4.50701e-06 4.08774e-06 3.63833e-06 3.29785e-06 2.92414e-06 2.5081e-06 2.17994e-06 1.83484e-06 1.51082e-06 1.25268e-06 1.02944e-06 8.47985e-07 6.89869e-07 5.38342e-07 4.1075e-07 3.09162e-07 1.50796e-07 0 0 