<?xml version="1.0"?>
<VTKFile type="ImageData" version="0.1" byte_order="LittleEndian">
<ImageData WholeExtent="0 599 0 599 0 0" Origin="0 0 0" Spacing="5 5 0">
<Piece Extent="0 599 0 599 0 0">
<PointData Scalars="Amplitude">
<DataArray type="Float32" Name="Amplitude" format="ascii">
0 0 0 0 0 0 0 0 0 0 0 0 0 0 0 0 0 0 0 0 0 0 0 0 0 0 0 0 0 0 0 0 0 0 0 0 0 0 0 0 0 0 0 0 0 0 0 0 0 0 0 0 0 0 0 0 0 0 0 0 0 0 0 0 0 0 0 0 0 0 0 0 0 0 0 0 0 0 0 0 0 0 0 0 0 0 0 0 0 0 0 0 0 0 0 0 0 0 0 0 0 0 0 0 0 0 0 0 0 0 0 0 0 0 0 0 0 0 0 0 0 0 0 0 0 0 0 0 0 0 0 0 0 0 0 0 0 0 0 0 0 0 0 0 0 0 0 0 0 0 0 0 0 0 0 0 0 0 0 0 0 0 0 0 0 0 0 0 0 0 0 0 0 0 0 0 0 0 0 0 0 0 0 0 0 0 0 0 0 0 0 0 0 0 0 0 0 0 0 0 0 0 0 0 0 0 0 0 0 0 0 0 0 0 0 0 0 0 0 0 0 0 0 0 0 0 0 0 0 0 0 0 0 0 0 0 0 0 0 0 0 0 0 0 0 0 0 0 0 0 0 0 0 0 0 0 0 0 0 0 0 0 0 0 0 0 0 0 0 0 0 0 0 0 0 0 0 0 0 0 0 0 0 0 0 0 0 0 0 0 0 0 0 0 0 0 0 0 0 0 0 0 0 0 0 0 0 0 0 0 0 0 0 0 0 0 0 0 0 0 0 0 0 0 0 0 0 0 0 0 0 0 0 0 0 0 0 0 0 0 0 0 0 0 0 0 0 0 0 0 0 0 0 0 0 0 0 0 0 0 0 0 0 0 0 0 0 0 0 0 0 0 0 0 0 0 0 0 0 0 0 0 0 0 0 0 0 0 0 0 0 0 0 0 0 0 0 0 0 0 0 0 0 0 0 0 0 0 0 0 0 0 0 0 0 0 0 0 0 0 0 0 0 0 0 0 0 0 0 0 0 0 0 0 0 0 0 0 0 0 0 0 0 0 0 0 0 0 0 0 0 0 0 0 0 0 0 0 0 0 0 0 0 0 0 0 0 0 0 0 0 0 0 0 0 0 0 0 0 0 0 0 0 0 0 0 0 0 0 0 0 0 0 0 0 0 0 0 0 0 0 0 0 0 0 0 0 0 0 0 0 0 0 0 0 0 0 0 0 0 0 0 0 0 0 0 0 0 0 0 0 0 0 0 0 0 0 0 0 0 0 0 0 0 0 0 0 0 0 0 0 0 0 0 0 0 0 0 0 0 0 0 0 0 0 0 0 0 0 0 0 0 0 0 0 0 0 0 0 0 0 0 0 0 0 0 0 0 0 0 0 0 0 0 0 0 0 0 0 0 
0 0 0 0 0 0 0 0 0 0 0 0 0 0 0 0 0 0 0 0 0 0 0 0 0 0 0 0 0 0 0 0 0 0 0 0 0 0 0 0 0 0 0 0 0 0 0 0 0 0 0 0 0 0 0 0 0 0 0 0 0 0 0 0 0 0 0 0 0 0 0 0 0 0 0 0 0 0 0 0 0 0 0 0 0 0 0 0 0 0 0 0 0 0 0 0 0 0 0 0 0 0 0 0 0 0 0 0 0 0 0 0 0 0 0 0 0 0 0 0 0 0 0 0 0 0 0 0 0 0 0 0 0 0 0 0 0 0 0 0 0 0 0 0 0 0 0 0 0 0 0 0 0 0 0 0 0 0 0 0 0 0 0 0 0 0 0 0 0 0 0 0 0 0 0 0 0 0 0 0 0 0 0 0 0 0 0 0 0 0 0 0 0 0 0 0 0 0 0 0 0 0 0 0 0 0 0 0 0 0 0 0 0 0 0 0 0 0 0 0 0 0 0 0 0 0 0 0 0 0 0 0 0 0 0 0 0 0 0 0 0 0 0 0 0 0 0 0 0 0 0 0 0 0 0 0 0 0 0 0 0 0 0 0 0 0 0 0 0 0 0 0 0 0 0 0 0 0 0 0 0 0 0 0 0 0 0 0 0 0 0 0 0 0 0 0 0 0 0 0 0 0 0 0 0 0 0 0 0 0 0 0 0 0 0 0 0 0 0 0 0 0 0 0 0 0 0 0 0 0 0 0 0 0 0 0 0 0 0 0 0 0 0 0 0 0 0 0 0 0 0 0 0 0 0 0 0 0 0 0 0 0 0 0 0 0 0 0 0 0 0 0 0 0 0 0 0 0 0 0 0 0 0 0 0 0 0 0 0 0 0 0 0 0 0 0 0 0 0 0 0 0 0 0 0 0 0 0 0 0 0 0 0 0 0 0 0 0 0 0 0 0 0 0 0 0 0 0 0 0 0 0 0 0 0 0 0 0 0 0 0 0 0 0 0 0 0 0 0 0 0 0 0 0 0 0 0 0 0 0 0 0 0 0 0 0 0 0 0 0 0 0 0 0 0 0 0 0 0 0 0 0 0 0 0 0 0 0 0 0 0 0 0 0 0 0 0 0 0 0 0 0 0 0 0 0 0 0 0 0 0 0 0 0 0 0 0 0 0 0 0 0 0 0 0 0 0 0 0 0 0 0 0 0 0 0 0 0 0 0 0 0 0 0 0 0 0 0 0 0 0 0 0 0 0 0 0 0 0 0 0 0 0 0 0 0 0 0 0 0 0 0 0 0 0 0 0 0 0 0 0 0 0 0 0 0 0 0 0 0 0 0 0 0 0 0 0 0 0 0 
0 0 0 0 0 0 0 0 0 0 0 0 0 0 0 0 0 0 0 0 0 0 0 0 0 0 0 0 0 0 0 0 0 0 0 0 0 0 0 0 0 0 0 0 0 0 0 0 0 0 0 0 0 0 0 0 0 0 0 0 0 0 0 0 0 0 0 0 0 0 0 0 0 0 0 0 0 0 0 0 0 0 0 0 0 0 0 0 0 0 0 0 0 0 0 0 0 0 0 0 0 0 0 0 0 0 0 0 0 0 0 0 0 0 0 0 0 0 0 0 0 0 0 0 0 0 0 0 0 0 0 0 0 0 0 0 0 0 0 0 0 0 0 0 -0 -0 -8.14296e-45 -7.46438e-44 -2.07646e-43 -3.16218e-43 2.2936e-43 2.80797e-42 8.6709e-42 1.41959e-41 -5.29293e-44 -8.16522e-41 -2.89064e-40 -5.68831e-40 -4.2786e-40 1.55128e-39 7.71151e-39 1.89537e-38 2.68002e-38 -1.92641e-39 -1.39273e-37 -4.73335e-37 -9.69382e-37 -1.11273e-36 6.63519e-37 7.33461e-36 2.2059e-35 4.27447e-35 4.941e-35 -1.50437e-35 -2.57439e-34 -8.01273e-34 -1.6344e-33 -2.24831e-33 -1.05137e-33 5.19147e-33 2.10623e-32 4.9645e-32 8.47132e-32 9.60661e-32 9.96292e-33 -3.03718e-31 -1.00896e-30 -2.19574e-30 -3.62363e-30 -4.27587e-30 -1.78284e-30 7.99953e-30 3.05959e-29 7.05741e-29 1.25792e-28 1.76982e-28 1.72905e-28 1.48781e-29 -4.49308e-28 -1.40346e-27 -2.98554e-27 -5.1229e-27 -7.2569e-27 -7.96573e-27 -4.56199e-27 7.14903e-27 3.26188e-26 7.73275e-26 1.43991e-25 2.27663e-25 3.08518e-25 3.42824e-25 2.53891e-25 -7.34642e-26 -7.89237e-25 -2.05754e-24 -4.00975e-24 -6.66278e-24 -9.79711e-24 -1.27969e-23 -1.44667e-23 -1.28586e-23 -5.16254e-24 1.22586e-23 4.3593e-23 9.29502e-23 1.63272e-22 2.54712e-22 3.62462e-22 4.74121e-22 5.66817e-22 6.04455e-22 5.35664e-22 2.93142e-22 -2.04735e-22 -1.04914e-21 -2.33201e-21 -4.13254e-21 -6.49866e-21 -9.42364e-21 -1.28187e-20 -1.64827e-20 -2.00727e-20 -2.30757e-20 -2.47889e-20 -2.43094e-20 -2.05392e-20 -1.22091e-20 2.07541e-21 2.37646e-20 5.42707e-20 9.48515e-20 1.46474e-19 2.09667e-19 2.84364e-19 3.69754e-19 4.64144e-19 5.64845e-19 6.68096e-19 7.69028e-19 8.61681e-19 9.39082e-19 9.93373e-19 1.016e-18 9.97945e-19 9.30022e-19 8.03176e-19 6.08816e-19 3.39149e-19 -1.25056e-20 -4.51423e-19 -9.81226e-19 -1.60369e-18 -2.31864e-18 -3.12383e-18 -4.01505e-18 -4.98613e-18 -6.02913e-18 -7.13454e-18 -8.29155e-18 -9.48834e-18 -1.07124e-17 -1.19508e-17 -1.31906e-17 -1.44191e-17 -1.56241e-17 -1.67942e-17 -1.79187e-17 -1.89883e-17 -1.99946e-17 -2.09305e-17 -2.17899e-17 -2.25679e-17 -2.32607e-17 -2.38653e-17 -2.43795e-17 -2.48018e-17 -2.51311e-17 -2.53667e-17 -2.55082e-17 -2.55553e-17 -2.55082e-17 -2.53667e-17 -2.51311e-17 -2.48018e-17 -2.43795e-17 -2.38653e-17 -2.32607e-17 -2.25679e-17 -2.17899e-17 -2.09305e-17 -1.99946e-17 -1.89883e-17 -1.79187e-17 -1.67942e-17 -1.56241e-17 -1.44191e-17 -1.31906e-17 -1.19508e-17 -1.07124e-17 -9.48834e-18 -8.29155e-18 -7.13454e-18 -6.02913e-18 -4.98613e-18 -4.01505e-18 -3.12383e-18 -2.31864e-18 -1.60369e-18 -9.81226e-19 -4.51423e-19 -1.25056e-20 3.39149e-19 6.08816e-19 8.03176e-19 9.30022e-19 9.97945e-19 1.016e-18 9.93373e-19 9.39082e-19 8.61681e-19 7.69028e-19 6.68096e-19 5.64845e-19 4.64144e-19 3.69754e-19 2.84364e-19 2.09667e-19 1.46474e-19 9.48515e-20 5.42707e-20 2.37646e-20 2.07541e-21 -1.22091e-20 -2.05392e-20 -2.43094e-20 -2.47889e-20 -2.30757e-20 -2.00727e-20 -1.64827e-20 -1.28187e-20 -9.42364e-21 -6.49866e-21 -4.13254e-21 -2.33201e-21 -1.04914e-21 -2.04735e-22 2.93142e-22 5.35664e-22 6.04455e-22 5.66817e-22 4.74121e-22 3.62462e-22 2.54712e-22 1.63272e-22 9.29502e-23 4.3593e-23 1.22586e-23 -5.16254e-24 -1.28586e-23 -1.44667e-23 -1.27969e-23 -9.79711e-24 -6.66278e-24 -4.00975e-24 -2.05754e-24 -7.89237e-25 -7.34642e-26 2.53891e-25 3.42824e-25 3.08518e-25 2.27663e-25 1.43991e-25 7.73275e-26 3.26188e-26 7.14903e-27 -4.56199e-27 -7.96573e-27 -7.2569e-27 -5.1229e-27 -2.98554e-27 -1.40346e-27 -4.49308e-28 1.48781e-29 1.72905e-28 1.76982e-28 1.25792e-28 7.05741e-29 3.05959e-29 7.99953e-30 -1.78284e-30 -4.27587e-30 -3.62363e-30 -2.19574e-30 -1.00896e-30 -3.03718e-31 9.96292e-33 9.60661e-32 8.47132e-32 4.9645e-32 2.10623e-32 5.19147e-33 -1.05137e-33 -2.24831e-33 -1.6344e-33 -8.01273e-34 -2.57439e-34 -1.50437e-35 4.941e-35 4.27447e-35 2.2059e-35 7.33461e-36 6.63519e-37 -1.11273e-36 -9.69382e-37 -4.73335e-37 -1.39273e-37 -1.92641e-39 2.68002e-38 1.89537e-38 7.71151e-39 1.55128e-39 -4.2786e-40 -5.68831e-40 -2.89064e-40 -8.16522e-41 -5.29293e-44 1.41959e-41 8.6709e-42 2.80797e-42 2.2936e-43 -3.16218e-43 -2.07646e-43 -7.46438e-44 -8.14296e-45 -0 -0 0 0 0 0 0 0 0 0 0 0 0 0 0 0 0 0 0 0 0 0 0 0 0 0 0 0 0 0 0 0 0 0 0 0 0 0 0 0 0 0 0 0 0 0 0 0 0 0 0 0 0 0 0 0 0 0 0 0 0 0 0 0 0 0 0 0 0 0 0 0 0 0 0 0 0 0 0 0 0 0 0 0 0 0 0 0 0 0 0 0 0 0 0 0 0 0 0 0 0 0 0 0 0 0 0 0 0 0 0 0 0 0 0 0 0 0 0 0 0 0 0 0 0 0 0 0 0 0 0 0 0 0 0 0 0 0 0 0 0 0 0 0 0 
0 0 0 0 0 0 0 0 0 0 0 0 0 0 0 0 0 0 0 0 0 0 0 0 0 0 0 0 0 0 0 0 0 0 0 0 0 0 0 0 0 0 0 0 0 0 0 0 0 0 0 0 0 0 0 0 0 0 0 0 0 0 0 0 0 0 0 0 0 0 0 0 0 0 0 0 0 0 0 0 0 0 0 0 0 0 0 0 0 0 0 0 0 0 0 0 0 0 0 0 0 0 0 0 0 0 0 0 0 0 0 0 0 0 0 0 0 0 0 0 0 0 0 0 0 0 0 0 0 0 0 0 0 0 0 0 0 0 0 0 0 0 0 0 -3.32994e-45 -4.31531e-44 -1.91528e-43 -4.60672e-43 -5.18757e-43 9.96438e-43 6.76596e-42 1.80786e-41 2.39545e-41 -2.11675e-41 -2.13749e-40 -6.36853e-40 -1.0548e-39 -2.13377e-40 4.96481e-39 1.85755e-38 3.90572e-38 4.07259e-38 -5.6094e-38 -3.98105e-37 -1.10497e-36 -1.89934e-36 -1.30477e-36 4.37636e-36 2.09744e-35 5.18667e-35 8.34507e-35 5.67437e-35 -1.66246e-34 -7.99293e-34 -1.99233e-33 -3.39913e-33 -3.32507e-33 2.38687e-33 2.08039e-32 5.93842e-32 1.16578e-31 1.61241e-31 1.00477e-31 -2.51636e-31 -1.16589e-30 -2.87402e-30 -5.2184e-30 -6.97539e-30 -4.87993e-30 7.28378e-30 3.85424e-29 9.77136e-29 1.84909e-28 2.75012e-28 2.9268e-28 8.41785e-29 -5.9792e-28 -2.0655e-27 -4.57219e-27 -8.038e-27 -1.15743e-26 -1.28182e-26 -7.20867e-27 1.24559e-26 5.55605e-26 1.31396e-25 2.43946e-25 3.8271e-25 5.09215e-25 5.40369e-25 3.32397e-25 -3.27226e-25 -1.70807e-24 -4.08936e-24 -7.65866e-24 -1.23402e-23 -1.75452e-23 -2.1854e-23 -2.26706e-23 -1.59289e-23 4.02014e-24 4.41601e-23 1.11983e-22 2.13849e-22 3.52337e-22 5.22469e-22 7.06882e-22 8.70263e-22 9.53729e-22 8.70175e-22 5.02101e-22 -2.96306e-22 -1.69074e-21 -3.85001e-21 -6.91905e-21 -1.09809e-20 -1.60074e-20 -2.18001e-20 -2.79252e-20 -3.36476e-20 -3.78707e-20 -3.90932e-20 -3.53906e-20 -2.44358e-20 -3.56554e-21 3.00953e-20 7.94477e-20 1.47168e-19 2.354e-19 3.45389e-19 4.7709e-19 6.28757e-19 7.96543e-19 9.74148e-19 1.15254e-18 1.31976e-18 1.46093e-18 1.55829e-18 1.59155e-18 1.53828e-18 1.37459e-18 1.07586e-18 6.17669e-19 -2.32645e-20 -8.68034e-19 -1.93454e-18 -3.23654e-18 -4.78284e-18 -6.57658e-18 -8.61481e-18 -1.08882e-17 -1.33812e-17 -1.60719e-17 -1.89331e-17 -2.19327e-17 -2.50347e-17 -2.82003e-17 -3.13891e-17 -3.45604e-17 -3.76744e-17 -4.06934e-17 -4.35831e-17 -4.63132e-17 -4.88585e-17 -5.11993e-17 -5.33218e-17 -5.52182e-17 -5.68865e-17 -5.83307e-17 -5.95592e-17 -6.05852e-17 -6.14252e-17 -6.20985e-17 -6.26257e-17 -6.30283e-17 -6.33269e-17 -6.35414e-17 -6.36887e-17 -6.37832e-17 -6.38356e-17 -6.38523e-17 -6.38356e-17 -6.37832e-17 -6.36887e-17 -6.35414e-17 -6.33269e-17 -6.30283e-17 -6.26257e-17 -6.20985e-17 -6.14252e-17 -6.05852e-17 -5.95592e-17 -5.83307e-17 -5.68865e-17 -5.52182e-17 -5.33218e-17 -5.11993e-17 -4.88585e-17 -4.63132e-17 -4.35831e-17 -4.06934e-17 -3.76744e-17 -3.45604e-17 -3.13891e-17 -2.82003e-17 -2.50347e-17 -2.19327e-17 -1.89331e-17 -1.60719e-17 -1.33812e-17 -1.08882e-17 -8.61481e-18 -6.57658e-18 -4.78284e-18 -3.23654e-18 -1.93454e-18 -8.68034e-19 -2.32645e-20 6.17669e-19 1.07586e-18 1.37459e-18 1.53828e-18 1.59155e-18 1.55829e-18 1.46093e-18 1.31976e-18 1.15254e-18 9.74148e-19 7.96543e-19 6.28757e-19 4.7709e-19 3.45389e-19 2.354e-19 1.47168e-19 7.94477e-20 3.00953e-20 -3.56554e-21 -2.44358e-20 -3.53906e-20 -3.90932e-20 -3.78707e-20 -3.36476e-20 -2.79252e-20 -2.18001e-20 -1.60074e-20 -1.09809e-20 -6.91905e-21 -3.85001e-21 -1.69074e-21 -2.96306e-22 5.02101e-22 8.70175e-22 9.53729e-22 8.70263e-22 7.06882e-22 5.22469e-22 3.52337e-22 2.13849e-22 1.11983e-22 4.41601e-23 4.02014e-24 -1.59289e-23 -2.26706e-23 -2.1854e-23 -1.75452e-23 -1.23402e-23 -7.65866e-24 -4.08936e-24 -1.70807e-24 -3.27226e-25 3.32397e-25 5.40369e-25 5.09215e-25 3.8271e-25 2.43946e-25 1.31396e-25 5.55605e-26 1.24559e-26 -7.20867e-27 -1.28182e-26 -1.15743e-26 -8.038e-27 -4.57219e-27 -2.0655e-27 -5.9792e-28 8.41785e-29 2.9268e-28 2.75012e-28 1.84909e-28 9.77136e-29 3.85424e-29 7.28378e-30 -4.87993e-30 -6.97539e-30 -5.2184e-30 -2.87402e-30 -1.16589e-30 -2.51636e-31 1.00477e-31 1.61241e-31 1.16578e-31 5.93842e-32 2.08039e-32 2.38687e-33 -3.32507e-33 -3.39913e-33 -1.99233e-33 -7.99293e-34 -1.66246e-34 5.67437e-35 8.34507e-35 5.18667e-35 2.09744e-35 4.37636e-36 -1.30477e-36 -1.89934e-36 -1.10497e-36 -3.98105e-37 -5.6094e-38 4.07259e-38 3.90572e-38 1.85755e-38 4.96481e-39 -2.13377e-40 -1.0548e-39 -6.36853e-40 -2.13749e-40 -2.11675e-41 2.39545e-41 1.80786e-41 6.76596e-42 9.96438e-43 -5.18757e-43 -4.60672e-43 -1.91528e-43 -4.31531e-44 -3.32994e-45 0 0 0 0 0 0 0 0 0 0 0 0 0 0 0 0 0 0 0 0 0 0 0 0 0 0 0 0 0 0 0 0 0 0 0 0 0 0 0 0 0 0 0 0 0 0 0 0 0 0 0 0 0 0 0 0 0 0 0 0 0 0 0 0 0 0 0 0 0 0 0 0 0 0 0 0 0 0 0 0 0 0 0 0 0 0 0 0 0 0 0 0 0 0 0 0 0 0 0 0 0 0 0 0 0 0 0 0 0 0 0 0 0 0 0 0 0 0 0 0 0 0 0 0 0 0 0 0 0 0 0 0 0 0 0 0 0 0 0 0 0 0 0 
0 0 0 0 0 0 0 0 0 0 0 0 0 0 0 0 0 0 0 0 0 0 0 0 0 0 0 0 0 0 0 0 0 0 0 0 0 0 0 0 0 0 0 0 0 0 0 0 0 0 0 0 0 0 0 0 0 0 0 0 0 0 0 0 0 0 0 0 0 0 0 0 0 0 0 0 0 0 0 0 0 0 0 0 0 0 0 0 0 0 0 0 0 0 0 0 0 0 0 0 0 0 0 0 0 0 0 0 0 0 0 0 0 0 0 0 0 0 0 0 0 0 0 0 0 0 0 0 0 0 0 0 0 0 0 0 0 0 0 0 0 0 0 -0 -3.27457e-44 -2.22398e-43 -6.67194e-43 -1.08061e-42 2.90618e-43 7.79894e-42 2.60506e-41 4.56325e-41 7.52879e-42 -2.3997e-40 -8.92998e-40 -1.79919e-39 -1.37766e-39 4.99759e-39 2.49648e-38 6.09963e-38 8.31543e-38 -2.25452e-38 -4.97224e-37 -1.61224e-36 -3.15179e-36 -3.14142e-36 4.05168e-36 2.84376e-35 7.86762e-35 1.40457e-34 1.2998e-34 -1.69026e-34 -1.12358e-33 -3.06516e-33 -5.62615e-33 -6.3326e-33 1.39812e-33 2.94639e-32 9.17351e-32 1.89408e-31 2.76991e-31 2.06572e-31 -3.30916e-31 -1.80394e-30 -4.64679e-30 -8.67737e-30 -1.19374e-29 -8.97711e-30 1.08072e-29 6.30747e-29 1.63437e-28 3.12678e-28 4.67662e-28 4.97039e-28 1.31338e-28 -1.06328e-27 -3.62968e-27 -7.99332e-27 -1.39577e-26 -1.98399e-26 -2.12735e-26 -9.94432e-27 2.70846e-26 1.06278e-25 2.43035e-25 4.41561e-25 6.77431e-25 8.7255e-25 8.65261e-25 3.83555e-25 -9.63561e-25 -3.65326e-24 -8.14413e-24 -1.4666e-23 -2.28766e-23 -3.1379e-23 -3.71308e-23 -3.48406e-23 -1.65285e-23 2.84777e-23 1.12748e-22 2.48727e-22 4.45064e-22 7.0096e-22 9.98462e-22 1.293e-21 1.50309e-21 1.50077e-21 1.10525e-21 8.29558e-23 -1.84234e-21 -4.96498e-21 -9.55498e-21 -1.57946e-20 -2.36933e-20 -3.29823e-20 -4.29947e-20 -5.25395e-20 -5.97844e-20 -6.21636e-20 -5.63333e-20 -3.8196e-20 -3.01761e-21 5.43431e-20 1.39079e-19 2.55944e-19 4.08637e-19 5.99068e-19 8.26545e-19 1.08693e-18 1.3718e-18 1.66769e-18 1.95552e-18 2.21017e-18 2.40047e-18 2.48935e-18 2.43457e-18 2.18968e-18 1.70543e-18 9.31558e-19 -1.81197e-19 -1.67884e-18 -3.60177e-18 -5.98249e-18 -8.84339e-18 -1.21949e-17 -1.60339e-17 -2.03427e-17 -2.50887e-17 -3.02244e-17 -3.56882e-17 -4.1406e-17 -4.72927e-17 -5.32552e-17 -5.9195e-17 -6.50114e-17 -7.06045e-17 -7.5879e-17 -8.07472e-17 -8.51315e-17 -8.89675e-17 -9.22055e-17 -9.48126e-17 -9.67732e-17 -9.80894e-17 -9.8781e-17 -9.88844e-17 -9.8451e-17 -9.75458e-17 -9.62449e-17 -9.46326e-17 -9.27995e-17 -9.08385e-17 -8.88426e-17 -8.69019e-17 -8.51006e-17 -8.35146e-17 -8.22095e-17 -8.1238e-17 -8.06393e-17 -8.04371e-17 -8.06393e-17 -8.1238e-17 -8.22095e-17 -8.35146e-17 -8.51006e-17 -8.69019e-17 -8.88426e-17 -9.08385e-17 -9.27995e-17 -9.46326e-17 -9.62449e-17 -9.75458e-17 -9.8451e-17 -9.88844e-17 -9.8781e-17 -9.80894e-17 -9.67732e-17 -9.48126e-17 -9.22055e-17 -8.89675e-17 -8.51315e-17 -8.07472e-17 -7.5879e-17 -7.06045e-17 -6.50114e-17 -5.9195e-17 -5.32552e-17 -4.72927e-17 -4.1406e-17 -3.56882e-17 -3.02244e-17 -2.50887e-17 -2.03427e-17 -1.60339e-17 -1.21949e-17 -8.84339e-18 -5.98249e-18 -3.60177e-18 -1.67884e-18 -1.81197e-19 9.31558e-19 1.70543e-18 2.18968e-18 2.43457e-18 2.48935e-18 2.40047e-18 2.21017e-18 1.95552e-18 1.66769e-18 1.3718e-18 1.08693e-18 8.26545e-19 5.99068e-19 4.08637e-19 2.55944e-19 1.39079e-19 5.43431e-20 -3.01761e-21 -3.8196e-20 -5.63333e-20 -6.21636e-20 -5.97844e-20 -5.25395e-20 -4.29947e-20 -3.29823e-20 -2.36933e-20 -1.57946e-20 -9.55498e-21 -4.96498e-21 -1.84234e-21 8.29558e-23 1.10525e-21 1.50077e-21 1.50309e-21 1.293e-21 9.98462e-22 7.0096e-22 4.45064e-22 2.48727e-22 1.12748e-22 2.84777e-23 -1.65285e-23 -3.48406e-23 -3.71308e-23 -3.1379e-23 -2.28766e-23 -1.4666e-23 -8.14413e-24 -3.65326e-24 -9.63561e-25 3.83555e-25 8.65261e-25 8.7255e-25 6.77431e-25 4.41561e-25 2.43035e-25 1.06278e-25 2.70846e-26 -9.94432e-27 -2.12735e-26 -1.98399e-26 -1.39577e-26 -7.99332e-27 -3.62968e-27 -1.06328e-27 1.31338e-28 4.97039e-28 4.67662e-28 3.12678e-28 1.63437e-28 6.30747e-29 1.08072e-29 -8.97711e-30 -1.19374e-29 -8.67737e-30 -4.64679e-30 -1.80394e-30 -3.30916e-31 2.06572e-31 2.76991e-31 1.89408e-31 9.17351e-32 2.94639e-32 1.39812e-33 -6.3326e-33 -5.62615e-33 -3.06516e-33 -1.12358e-33 -1.69026e-34 1.2998e-34 1.40457e-34 7.86762e-35 2.84376e-35 4.05168e-36 -3.14142e-36 -3.15179e-36 -1.61224e-36 -4.97224e-37 -2.25452e-38 8.31543e-38 6.09963e-38 2.49648e-38 4.99759e-39 -1.37766e-39 -1.79919e-39 -8.92998e-40 -2.3997e-40 7.52879e-42 4.56325e-41 2.60506e-41 7.79894e-42 2.90618e-43 -1.08061e-42 -6.67194e-43 -2.22398e-43 -3.27457e-44 -0 0 0 0 0 0 0 0 0 0 0 0 0 0 0 0 0 0 0 0 0 0 0 0 0 0 0 0 0 0 0 0 0 0 0 0 0 0 0 0 0 0 0 0 0 0 0 0 0 0 0 0 0 0 0 0 0 0 0 0 0 0 0 0 0 0 0 0 0 0 0 0 0 0 0 0 0 0 0 0 0 0 0 0 0 0 0 0 0 0 0 0 0 0 0 0 0 0 0 0 0 0 0 0 0 0 0 0 0 0 0 0 0 0 0 0 0 0 0 0 0 0 0 0 0 0 0 0 0 0 0 0 0 0 0 0 0 0 0 0 0 0 0 
0 0 0 0 0 0 0 0 0 0 0 0 0 0 0 0 0 0 0 0 0 0 0 0 0 0 0 0 0 0 0 0 0 0 0 0 0 0 0 0 0 0 0 0 0 0 0 0 0 0 0 0 0 0 0 0 0 0 0 0 0 0 0 0 0 0 0 0 0 0 0 0 0 0 0 0 0 0 0 0 0 0 0 0 0 0 0 0 0 0 0 0 0 0 0 0 0 0 0 0 0 0 0 0 0 0 0 0 0 0 0 0 0 0 0 0 0 0 0 0 0 0 0 0 0 0 0 0 0 0 0 0 0 0 0 0 0 0 0 0 0 0 -8.20676e-45 -1.12159e-43 -4.67786e-43 -1.0874e-42 -9.34203e-43 3.41949e-42 1.80672e-41 4.31895e-41 4.37174e-41 -1.03397e-40 -6.24703e-40 -1.61302e-39 -2.13645e-39 1.52106e-39 1.71597e-38 5.20227e-38 9.06318e-38 4.34312e-38 -3.17127e-37 -1.32423e-36 -3.00913e-36 -3.9003e-36 1.09503e-36 2.23178e-35 7.14331e-35 1.41627e-34 1.59692e-34 -8.73245e-35 -9.94163e-34 -2.97952e-33 -5.81516e-33 -7.09289e-33 1.07743e-34 2.88992e-32 9.53545e-32 2.02331e-31 3.00318e-31 2.21692e-31 -3.89551e-31 -2.07436e-30 -5.31684e-30 -9.81653e-30 -1.30433e-29 -8.13629e-30 1.79886e-29 8.39673e-29 2.06365e-28 3.78988e-28 5.33624e-28 4.8296e-28 -1.37447e-28 -1.8822e-27 -5.37784e-27 -1.09472e-26 -1.78391e-26 -2.29905e-26 -1.94504e-26 5.00291e-27 6.79034e-26 1.88886e-25 3.80646e-25 6.31366e-25 8.77051e-25 9.65351e-25 6.18517e-25 -5.87829e-25 -3.20192e-24 -7.78938e-24 -1.46965e-23 -2.36406e-23 -3.31085e-23 -3.95974e-23 -3.68145e-23 -1.50788e-23 3.86929e-23 1.39886e-22 3.03338e-22 5.38103e-22 8.39334e-22 1.1772e-21 1.4834e-21 1.63682e-21 1.4511e-21 6.68271e-22 -1.03606e-21 -4.02954e-21 -8.67511e-21 -1.52524e-20 -2.38443e-20 -3.41893e-20 -4.55045e-20 -5.62926e-20 -6.41527e-20 -6.56261e-20 -5.61117e-20 -2.98959e-20 1.96599e-20 9.97304e-20 2.17403e-19 3.78798e-19 5.8794e-19 8.45395e-19 1.14674e-18 1.48096e-18 1.82886e-18 2.16166e-18 2.43992e-18 2.613e-18 2.61911e-18 2.38617e-18 1.83358e-18 8.74883e-19 -5.78624e-19 -2.61349e-18 -5.30899e-18 -8.73153e-18 -1.29289e-17 -1.79245e-17 -2.37124e-17 -3.02526e-17 -3.74679e-17 -4.52417e-17 -5.34183e-17 -6.18035e-17 -7.01686e-17 -7.82547e-17 -8.57795e-17 -9.24454e-17 -9.79484e-17 -1.01988e-16 -1.04277e-16 -1.04551e-16 -1.02579e-16 -9.81711e-17 -9.11866e-17 -8.15387e-17 -6.91996e-17 -5.42021e-17 -3.66404e-17 -1.66689e-17 5.50135e-18 2.96072e-17 5.53388e-17 8.23471e-17 1.10252e-16 1.3865e-16 1.67123e-16 1.95246e-16 2.22599e-16 2.48768e-16 2.7336e-16 2.96005e-16 3.16362e-16 3.34128e-16 3.49037e-16 3.60868e-16 3.69446e-16 3.74644e-16 3.76385e-16 3.74644e-16 3.69446e-16 3.60868e-16 3.49037e-16 3.34128e-16 3.16362e-16 2.96005e-16 2.7336e-16 2.48768e-16 2.22599e-16 1.95246e-16 1.67123e-16 1.3865e-16 1.10252e-16 8.23471e-17 5.53388e-17 2.96072e-17 5.50135e-18 -1.66689e-17 -3.66404e-17 -5.42021e-17 -6.91996e-17 -8.15387e-17 -9.11866e-17 -9.81711e-17 -1.02579e-16 -1.04551e-16 -1.04277e-16 -1.01988e-16 -9.79484e-17 -9.24454e-17 -8.57795e-17 -7.82547e-17 -7.01686e-17 -6.18035e-17 -5.34183e-17 -4.52417e-17 -3.74679e-17 -3.02526e-17 -2.37124e-17 -1.79245e-17 -1.29289e-17 -8.73153e-18 -5.30899e-18 -2.61349e-18 -5.78624e-19 8.74883e-19 1.83358e-18 2.38617e-18 2.61911e-18 2.613e-18 2.43992e-18 2.16166e-18 1.82886e-18 1.48096e-18 1.14674e-18 8.45395e-19 5.8794e-19 3.78798e-19 2.17403e-19 9.97304e-20 1.96599e-20 -2.98959e-20 -5.61117e-20 -6.56261e-20 -6.41527e-20 -5.62926e-20 -4.55045e-20 -3.41893e-20 -2.38443e-20 -1.52524e-20 -8.67511e-21 -4.02954e-21 -1.03606e-21 6.68271e-22 1.4511e-21 1.63682e-21 1.4834e-21 1.1772e-21 8.39334e-22 5.38103e-22 3.03338e-22 1.39886e-22 3.86929e-23 -1.50788e-23 -3.68145e-23 -3.95974e-23 -3.31085e-23 -2.36406e-23 -1.46965e-23 -7.78938e-24 -3.20192e-24 -5.87829e-25 6.18517e-25 9.65351e-25 8.77051e-25 6.31366e-25 3.80646e-25 1.88886e-25 6.79034e-26 5.00291e-27 -1.94504e-26 -2.29905e-26 -1.78391e-26 -1.09472e-26 -5.37784e-27 -1.8822e-27 -1.37447e-28 4.8296e-28 5.33624e-28 3.78988e-28 2.06365e-28 8.39673e-29 1.79886e-29 -8.13629e-30 -1.30433e-29 -9.81653e-30 -5.31684e-30 -2.07436e-30 -3.89551e-31 2.21692e-31 3.00318e-31 2.02331e-31 9.53545e-32 2.88992e-32 1.07743e-34 -7.09289e-33 -5.81516e-33 -2.97952e-33 -9.94163e-34 -8.73245e-35 1.59692e-34 1.41627e-34 7.14331e-35 2.23178e-35 1.09503e-36 -3.9003e-36 -3.00913e-36 -1.32423e-36 -3.17127e-37 4.34312e-38 9.06318e-38 5.20227e-38 1.71597e-38 1.52106e-39 -2.13645e-39 -1.61302e-39 -6.24703e-40 -1.03397e-40 4.37174e-41 4.31895e-41 1.80672e-41 3.41949e-42 -9.34203e-43 -1.0874e-42 -4.67786e-43 -1.12159e-43 -8.20676e-45 0 0 0 0 0 0 0 0 0 0 0 0 0 0 0 0 0 0 0 0 0 0 0 0 0 0 0 0 0 0 0 0 0 0 0 0 0 0 0 0 0 0 0 0 0 0 0 0 0 0 0 0 0 0 0 0 0 0 0 0 0 0 0 0 0 0 0 0 0 0 0 0 0 0 0 0 0 0 0 0 0 0 0 0 0 0 0 0 0 0 0 0 0 0 0 0 0 0 0 0 0 0 0 0 0 0 0 0 0 0 0 0 0 0 0 0 0 0 0 0 0 0 0 0 0 0 0 0 0 0 0 0 0 0 0 0 0 0 0 0 0 
0 0 0 0 0 0 0 0 0 0 0 0 0 0 0 0 0 0 0 0 0 0 0 0 0 0 0 0 0 0 0 0 0 0 0 0 0 0 0 0 0 0 0 0 0 0 0 0 0 0 0 0 0 0 0 0 0 0 0 0 0 0 0 0 0 0 0 0 0 0 0 0 0 0 0 0 0 0 0 0 0 0 0 0 0 0 0 0 0 0 0 0 0 0 0 0 0 0 0 0 0 0 0 0 0 0 0 0 0 0 0 0 0 0 0 0 0 0 0 0 0 0 0 0 0 0 0 0 0 0 0 0 0 0 0 0 0 0 0 0 -0 -3.29046e-44 -2.6735e-43 -8.71972e-43 -1.49579e-42 2.68721e-43 1.03855e-41 3.52395e-41 6.0805e-41 -2.74205e-43 -3.68961e-40 -1.3084e-39 -2.47501e-39 -1.21143e-39 9.76311e-39 4.11637e-38 9.11494e-38 9.75364e-38 -1.4264e-37 -1.00747e-36 -2.77628e-36 -4.5553e-36 -1.99032e-36 1.53769e-35 6.25344e-35 1.42153e-34 1.96293e-34 2.07339e-35 -8.11175e-34 -2.84275e-33 -6.08555e-33 -8.35683e-33 -2.4886e-33 2.61995e-32 9.74243e-32 2.18785e-31 3.40792e-31 2.77166e-31 -3.86182e-31 -2.29944e-30 -6.06674e-30 -1.13505e-29 -1.50497e-29 -8.62133e-30 2.43009e-29 1.06789e-28 2.58006e-28 4.64786e-28 6.28314e-28 4.88494e-28 -4.47106e-28 -2.8997e-27 -7.61295e-27 -1.4763e-26 -2.28031e-26 -2.66887e-26 -1.57808e-26 2.76111e-26 1.27114e-25 3.05553e-25 5.68746e-25 8.76348e-25 1.09896e-24 9.67099e-25 2.86436e-26 -2.35295e-24 -6.90932e-24 -1.42215e-23 -2.42498e-23 -3.55924e-23 -4.4491e-23 -4.37113e-23 -2.1607e-23 3.8109e-23 1.55117e-22 3.48807e-22 6.3114e-22 9.95234e-22 1.39942e-21 1.74762e-21 1.86844e-21 1.4975e-21 2.70043e-22 -2.26708e-21 -6.61273e-21 -1.32268e-20 -2.23935e-20 -3.40264e-20 -4.74178e-20 -6.09457e-20 -7.17637e-20 -7.55205e-20 -6.61665e-20 -3.59261e-20 2.44822e-20 1.25286e-19 2.76684e-19 4.87395e-19 7.62711e-19 1.10208e-18 1.49633e-18 1.92462e-18 2.35153e-18 2.72427e-18 2.97077e-18 2.99863e-18 2.69558e-18 1.9317e-18 5.63598e-19 -1.55913e-18 -4.58533e-18 -8.6516e-18 -1.38699e-17 -2.03141e-17 -2.80057e-17 -3.68999e-17 -4.68733e-17 -5.77129e-17 -6.91085e-17 -8.06491e-17 -9.18232e-17 -1.02024e-16 -1.1056e-16 -1.1667e-16 -1.19542e-16 -1.18339e-16 -1.12222e-16 -1.00381e-16 -8.20609e-17 -5.65935e-17 -2.34197e-17 1.78842e-17 6.75908e-17 1.25805e-16 1.92458e-16 2.67302e-16 3.49917e-16 4.39716e-16 5.35963e-16 6.37787e-16 7.4421e-16 8.54164e-16 9.66522e-16 1.08012e-15 1.19379e-15 1.30638e-15 1.41675e-15 1.52386e-15 1.62669e-15 1.72433e-15 1.81595e-15 1.90081e-15 1.97827e-15 2.04777e-15 2.10886e-15 2.16114e-15 2.2043e-15 2.23811e-15 2.26238e-15 2.27699e-15 2.28186e-15 2.27699e-15 2.26238e-15 2.23811e-15 2.2043e-15 2.16114e-15 2.10886e-15 2.04777e-15 1.97827e-15 1.90081e-15 1.81595e-15 1.72433e-15 1.62669e-15 1.52386e-15 1.41675e-15 1.30638e-15 1.19379e-15 1.08012e-15 9.66522e-16 8.54164e-16 7.4421e-16 6.37787e-16 5.35963e-16 4.39716e-16 3.49917e-16 2.67302e-16 1.92458e-16 1.25805e-16 6.75908e-17 1.78842e-17 -2.34197e-17 -5.65935e-17 -8.20609e-17 -1.00381e-16 -1.12222e-16 -1.18339e-16 -1.19542e-16 -1.1667e-16 -1.1056e-16 -1.02024e-16 -9.18232e-17 -8.06491e-17 -6.91085e-17 -5.77129e-17 -4.68733e-17 -3.68999e-17 -2.80057e-17 -2.03141e-17 -1.38699e-17 -8.6516e-18 -4.58533e-18 -1.55913e-18 5.63598e-19 1.9317e-18 2.69558e-18 2.99863e-18 2.97077e-18 2.72427e-18 2.35153e-18 1.92462e-18 1.49633e-18 1.10208e-18 7.62711e-19 4.87395e-19 2.76684e-19 1.25286e-19 2.44822e-20 -3.59261e-20 -6.61665e-20 -7.55205e-20 -7.17637e-20 -6.09457e-20 -4.74178e-20 -3.40264e-20 -2.23935e-20 -1.32268e-20 -6.61273e-21 -2.26708e-21 2.70043e-22 1.4975e-21 1.86844e-21 1.74762e-21 1.39942e-21 9.95234e-22 6.3114e-22 3.48807e-22 1.55117e-22 3.8109e-23 -2.1607e-23 -4.37113e-23 -4.4491e-23 -3.55924e-23 -2.42498e-23 -1.42215e-23 -6.90932e-24 -2.35295e-24 2.86436e-26 9.67099e-25 1.09896e-24 8.76348e-25 5.68746e-25 3.05553e-25 1.27114e-25 2.76111e-26 -1.57808e-26 -2.66887e-26 -2.28031e-26 -1.4763e-26 -7.61295e-27 -2.8997e-27 -4.47106e-28 4.88494e-28 6.28314e-28 4.64786e-28 2.58006e-28 1.06789e-28 2.43009e-29 -8.62133e-30 -1.50497e-29 -1.13505e-29 -6.06674e-30 -2.29944e-30 -3.86182e-31 2.77166e-31 3.40792e-31 2.18785e-31 9.74243e-32 2.61995e-32 -2.4886e-33 -8.35683e-33 -6.08555e-33 -2.84275e-33 -8.11175e-34 2.07339e-35 1.96293e-34 1.42153e-34 6.25344e-35 1.53769e-35 -1.99032e-36 -4.5553e-36 -2.77628e-36 -1.00747e-36 -1.4264e-37 9.75364e-38 9.11494e-38 4.11637e-38 9.76311e-39 -1.21143e-39 -2.47501e-39 -1.3084e-39 -3.68961e-40 -2.74205e-43 6.0805e-41 3.52395e-41 1.03855e-41 2.68721e-43 -1.49579e-42 -8.71972e-43 -2.6735e-43 -3.29046e-44 -0 0 0 0 0 0 0 0 0 0 0 0 0 0 0 0 0 0 0 0 0 0 0 0 0 0 0 0 0 0 0 0 0 0 0 0 0 0 0 0 0 0 0 0 0 0 0 0 0 0 0 0 0 0 0 0 0 0 0 0 0 0 0 0 0 0 0 0 0 0 0 0 0 0 0 0 0 0 0 0 0 0 0 0 0 0 0 0 0 0 0 0 0 0 0 0 0 0 0 0 0 0 0 0 0 0 0 0 0 0 0 0 0 0 0 0 0 0 0 0 0 0 0 0 0 0 0 0 0 0 0 0 0 0 0 0 0 0 0 0 
0 0 0 0 0 0 0 0 0 0 0 0 0 0 0 0 0 0 0 0 0 0 0 0 0 0 0 0 0 0 0 0 0 0 0 0 0 0 0 0 0 0 0 0 0 0 0 0 0 0 0 0 0 0 0 0 0 0 0 0 0 0 0 0 0 0 0 0 0 0 0 0 0 0 0 0 0 0 0 0 0 0 0 0 0 0 0 0 0 0 0 0 0 0 0 0 0 0 0 0 0 0 0 0 0 0 0 0 0 0 0 0 0 0 0 0 0 0 0 0 0 0 0 0 0 0 0 0 0 0 0 0 0 0 0 0 0 0 0 -4.12229e-45 -1.19547e-43 -5.55135e-43 -1.4112e-42 -1.46067e-42 3.92717e-42 2.34462e-41 5.85283e-41 6.07475e-41 -1.47004e-40 -8.94404e-40 -2.29265e-39 -2.83617e-39 3.31188e-39 2.79512e-38 7.98965e-38 1.26187e-37 7.39045e-39 -6.50901e-37 -2.31387e-36 -4.69034e-36 -4.50571e-36 7.90505e-36 4.95736e-35 1.32637e-34 2.19654e-34 1.30931e-34 -5.65717e-34 -2.5217e-33 -6.04188e-33 -9.39338e-33 -5.6326e-33 2.0904e-32 9.35315e-32 2.26493e-31 3.76018e-31 3.47365e-31 -3.20682e-31 -2.38792e-30 -6.6112e-30 -1.27008e-29 -1.7115e-29 -9.73067e-30 2.91786e-29 1.27532e-28 3.07707e-28 5.49502e-28 7.20631e-28 4.79471e-28 -8.10484e-28 -4.0537e-27 -1.01015e-26 -1.88868e-26 -2.77829e-26 -2.91755e-26 -7.80867e-27 6.05064e-26 2.05767e-25 4.51642e-25 7.88926e-25 1.13054e-24 1.24948e-24 7.1274e-25 -1.15699e-24 -5.235e-24 -1.23807e-23 -2.29576e-23 -3.59992e-23 -4.79956e-23 -5.14103e-23 -3.3264e-23 2.5562e-23 1.49279e-22 3.63034e-22 6.84106e-22 1.10707e-21 1.58232e-21 1.98884e-21 2.10466e-21 1.58151e-21 -6.53989e-23 -3.43795e-21 -9.18805e-21 -1.78841e-20 -2.97943e-20 -4.45789e-20 -6.08946e-20 -7.59387e-20 -8.49827e-20 -8.09803e-20 -5.4362e-20 6.83838e-21 1.16367e-19 2.88485e-19 5.35905e-19 8.66864e-19 1.2813e-18 1.76624e-18 2.29071e-18 2.80042e-18 3.21295e-18 3.41395e-18 3.25533e-18 2.55606e-18 1.10659e-18 -1.32259e-18 -4.96767e-18 -1.00534e-17 -1.67703e-17 -2.52477e-17 -3.55243e-17 -4.75164e-17 -6.09874e-17 -7.55195e-17 -9.04902e-17 -1.05056e-16 -1.18146e-16 -1.28465e-16 -1.34511e-16 -1.34605e-16 -1.2693e-16 -1.09587e-16 -8.06596e-17 -3.82818e-17 1.92843e-17 9.35736e-17 1.85844e-16 2.9701e-16 4.27587e-16 5.77646e-16 7.46789e-16 9.34136e-16 1.13834e-15 1.3576e-15 1.58972e-15 1.83217e-15 2.08214e-15 2.33664e-15 2.59259e-15 2.8469e-15 3.09658e-15 3.33879e-15 3.57096e-15 3.79083e-15 3.99652e-15 4.18656e-15 4.35989e-15 4.51592e-15 4.65446e-15 4.77574e-15 4.88035e-15 4.96918e-15 5.04338e-15 5.10429e-15 5.15335e-15 5.19206e-15 5.22188e-15 5.24417e-15 5.26015e-15 5.27081e-15 5.27691e-15 5.27888e-15 5.27691e-15 5.27081e-15 5.26015e-15 5.24417e-15 5.22188e-15 5.19206e-15 5.15335e-15 5.10429e-15 5.04338e-15 4.96918e-15 4.88035e-15 4.77574e-15 4.65446e-15 4.51592e-15 4.35989e-15 4.18656e-15 3.99652e-15 3.79083e-15 3.57096e-15 3.33879e-15 3.09658e-15 2.8469e-15 2.59259e-15 2.33664e-15 2.08214e-15 1.83217e-15 1.58972e-15 1.3576e-15 1.13834e-15 9.34136e-16 7.46789e-16 5.77646e-16 4.27587e-16 2.9701e-16 1.85844e-16 9.35736e-17 1.92843e-17 -3.82818e-17 -8.06596e-17 -1.09587e-16 -1.2693e-16 -1.34605e-16 -1.34511e-16 -1.28465e-16 -1.18146e-16 -1.05056e-16 -9.04902e-17 -7.55195e-17 -6.09874e-17 -4.75164e-17 -3.55243e-17 -2.52477e-17 -1.67703e-17 -1.00534e-17 -4.96767e-18 -1.32259e-18 1.10659e-18 2.55606e-18 3.25533e-18 3.41395e-18 3.21295e-18 2.80042e-18 2.29071e-18 1.76624e-18 1.2813e-18 8.66864e-19 5.35905e-19 2.88485e-19 1.16367e-19 6.83838e-21 -5.4362e-20 -8.09803e-20 -8.49827e-20 -7.59387e-20 -6.08946e-20 -4.45789e-20 -2.97943e-20 -1.78841e-20 -9.18805e-21 -3.43795e-21 -6.53989e-23 1.58151e-21 2.10466e-21 1.98884e-21 1.58232e-21 1.10707e-21 6.84106e-22 3.63034e-22 1.49279e-22 2.5562e-23 -3.3264e-23 -5.14103e-23 -4.79956e-23 -3.59992e-23 -2.29576e-23 -1.23807e-23 -5.235e-24 -1.15699e-24 7.1274e-25 1.24948e-24 1.13054e-24 7.88926e-25 4.51642e-25 2.05767e-25 6.05064e-26 -7.80867e-27 -2.91755e-26 -2.77829e-26 -1.88868e-26 -1.01015e-26 -4.0537e-27 -8.10484e-28 4.79471e-28 7.20631e-28 5.49502e-28 3.07707e-28 1.27532e-28 2.91786e-29 -9.73067e-30 -1.7115e-29 -1.27008e-29 -6.6112e-30 -2.38792e-30 -3.20682e-31 3.47365e-31 3.76018e-31 2.26493e-31 9.35315e-32 2.0904e-32 -5.6326e-33 -9.39338e-33 -6.04188e-33 -2.5217e-33 -5.65717e-34 1.30931e-34 2.19654e-34 1.32637e-34 4.95736e-35 7.90505e-36 -4.50571e-36 -4.69034e-36 -2.31387e-36 -6.50901e-37 7.39045e-39 1.26187e-37 7.98965e-38 2.79512e-38 3.31188e-39 -2.83617e-39 -2.29265e-39 -8.94404e-40 -1.47004e-40 6.07475e-41 5.85283e-41 2.34462e-41 3.92717e-42 -1.46067e-42 -1.4112e-42 -5.55135e-43 -1.19547e-43 -4.12229e-45 0 0 0 0 0 0 0 0 0 0 0 0 0 0 0 0 0 0 0 0 0 0 0 0 0 0 0 0 0 0 0 0 0 0 0 0 0 0 0 0 0 0 0 0 0 0 0 0 0 0 0 0 0 0 0 0 0 0 0 0 0 0 0 0 0 0 0 0 0 0 0 0 0 0 0 0 0 0 0 0 0 0 0 0 0 0 0 0 0 0 0 0 0 0 0 0 0 0 0 0 0 0 0 0 0 0 0 0 0 0 0 0 0 0 0 0 0 0 0 0 0 0 0 0 0 0 0 0 0 0 0 0 0 0 0 0 0 0 