<?xml version="1.0"?>
<VTKFile type="ImageData" version="0.1" byte_order="LittleEndian">
<ImageData WholeExtent="0 599 0 599 0 0" Origin="0 0 0" Spacing="5 5 0">
<Piece Extent="0 599 0 599 0 0">
<PointData Scalars="Amplitude">
<DataArray type="Float32" Name="Amplitude" format="ascii">
0 0 0 0 0 0 0 0 0 0 0 0 0 0 0 0 0 0 0 0 0 0 0 0 0 0 0 0 0 0 0 0 0 0 0 0 0 0 0 0 0 0 0 0 0 0 0 0 0 0 0 0 0 0 0 0 0 0 0 0 0 0 0 0 0 0 0 0 0 0 0 0 0 0 0 0 0 0 0 0 0 0 0 0 0 0 0 0 0 0 0 0 0 0 0 0 0 0 0 0 0 0 0 0 0 0 0 0 0 0 0 0 0 0 0 0 0 0 0 0 0 0 0 0 0 0 0 0 0 0 0 0 0 0 0 0 0 0 0 0 0 0 0 0 0 0 0 0 0 0 0 0 0 0 0 0 0 0 0 0 0 0 0 0 0 0 0 0 0 0 0 0 0 0 0 0 0 0 0 0 0 0 0 0 0 0 0 0 0 0 0 0 0 0 0 0 0 0 0 0 0 0 0 0 0 0 0 0 0 0 0 0 0 0 0 0 0 0 0 0 0 0 0 0 0 0 0 0 0 0 0 0 0 0 0 0 0 0 0 0 0 0 0 0 0 0 0 0 0 0 0 0 0 0 0 0 0 0 0 0 0 0 0 0 0 0 0 0 0 0 0 0 0 0 0 0 0 0 0 0 0 0 0 0 0 0 0 0 0 0 0 0 0 0 0 0 0 0 0 0 0 0 0 0 0 0 0 0 0 0 0 0 0 0 0 0 0 0 0 0 0 0 0 0 0 0 0 0 0 0 0 0 0 0 0 0 0 0 0 0 0 0 0 0 0 0 0 0 0 0 0 0 0 0 0 0 0 0 0 0 0 0 0 0 0 0 0 0 0 0 0 0 0 0 0 0 0 0 0 0 0 0 0 0 0 0 0 0 0 0 0 0 0 0 0 0 0 0 0 0 0 0 0 0 0 0 0 0 0 0 0 0 0 0 0 0 0 0 0 0 0 0 0 0 0 0 0 0 0 0 0 0 0 0 0 0 0 0 0 0 0 0 0 0 0 0 0 0 0 0 0 0 0 0 0 0 0 0 0 0 0 0 0 0 0 0 0 0 0 0 0 0 0 0 0 0 0 0 0 0 0 0 0 0 0 0 0 0 0 0 0 0 0 0 0 0 0 0 0 0 0 0 0 0 0 0 0 0 0 0 0 0 0 0 0 0 0 0 0 0 0 0 0 0 0 0 0 0 0 0 0 0 0 0 0 0 0 0 0 0 0 0 0 0 0 0 0 0 0 0 0 0 0 0 0 0 0 0 0 0 0 0 0 0 0 0 0 0 0 0 0 0 0 0 0 0 0 0 0 0 0 0 0 0 0 0 0 0 0 0 0 0 0 0 0 0 0 0 0 0 
0 0 0 0 0 0 0 0 0 0 0 0 0 0 0 0 0 0 0 0 0 0 0 0 0 0 0 0 0 0 0 0 0 0 0 0 0 0 0 0 0 0 0 0 0 0 0 0 0 0 0 0 0 0 0 0 0 0 0 0 0 0 0 0 0 0 0 0 0 0 0 0 0 0 0 0 0 0 0 0 0 0 0 0 0 0 0 0 0 0 0 0 0 0 0 0 0 0 0 0 0 0 0 0 0 0 0 0 0 0 0 0 0 0 0 0 0 0 0 0 0 0 0 0 0 0 0 0 0 0 0 0 0 0 0 0 0 0 0 0 0 0 0 0 0 0 0 0 0 0 0 0 0 0 0 0 0 0 0 0 0 0 0 0 0 0 0 0 0 0 0 0 0 0 0 0 0 0 0 0 0 0 0 0 0 0 0 0 0 0 0 0 0 0 0 0 0 0 0 0 0 0 0 0 0 0 0 0 0 0 0 0 0 0 0 0 0 0 0 0 0 0 0 0 0 0 0 0 0 0 0 0 0 0 0 0 0 0 0 0 0 0 0 0 0 0 0 0 0 0 0 0 0 0 0 0 0 0 0 0 0 0 0 0 0 0 0 0 0 0 0 0 0 0 0 0 0 0 0 0 0 0 0 0 0 0 0 0 0 0 0 0 0 0 0 0 0 0 0 0 0 0 0 0 0 0 0 0 0 0 0 0 0 0 0 0 0 0 0 0 0 0 0 0 0 0 0 0 0 0 0 0 0 0 0 0 0 0 0 0 0 0 0 0 0 0 0 0 0 0 0 0 0 0 0 0 0 0 0 0 0 0 0 0 0 0 0 0 0 0 0 0 0 0 0 0 0 0 0 0 0 0 0 0 0 0 0 0 0 0 0 0 0 0 0 0 0 0 0 0 0 0 0 0 0 0 0 0 0 0 0 0 0 0 0 0 0 0 0 0 0 0 0 0 0 0 0 0 0 0 0 0 0 0 0 0 0 0 0 0 0 0 0 0 0 0 0 0 0 0 0 0 0 0 0 0 0 0 0 0 0 0 0 0 0 0 0 0 0 0 0 0 0 0 0 0 0 0 0 0 0 0 0 0 0 0 0 0 0 0 0 0 0 0 0 0 0 0 0 0 0 0 0 0 0 0 0 0 0 0 0 0 0 0 0 0 0 0 0 0 0 0 0 0 0 0 0 0 0 0 0 0 0 0 0 0 0 0 0 0 0 0 0 0 0 0 0 0 0 0 0 0 0 0 0 0 0 0 0 0 0 0 0 0 0 0 0 0 0 0 0 0 0 0 0 0 0 0 0 0 0 0 0 0 0 0 0 0 0 0 0 0 0 0 0 0 0 0 0 0 
0 0 3.62382e-08 8.16733e-08 1.19759e-07 1.55549e-07 2.02927e-07 2.70071e-07 3.54056e-07 4.46048e-07 5.42199e-07 6.73081e-07 8.56624e-07 1.0622e-06 1.23117e-06 1.39174e-06 1.63132e-06 1.88068e-06 2.06172e-06 2.23936e-06 2.44902e-06 2.63987e-06 2.84413e-06 3.07089e-06 3.29277e-06 3.58163e-06 3.85238e-06 3.98567e-06 4.11393e-06 4.21644e-06 4.35579e-06 4.57425e-06 4.7338e-06 4.87068e-06 5.01955e-06 5.15296e-06 5.2846e-06 5.42887e-06 5.54366e-06 5.67081e-06 5.79433e-06 5.89708e-06 6.03235e-06 6.12358e-06 6.19502e-06 6.29457e-06 6.33096e-06 6.39106e-06 6.44545e-06 6.45484e-06 6.5182e-06 6.5793e-06 6.5904e-06 6.63782e-06 6.61361e-06 6.60029e-06 6.59254e-06 6.5323e-06 6.47612e-06 6.35491e-06 6.21953e-06 6.17037e-06 6.06623e-06 5.93021e-06 5.77373e-06 5.52948e-06 5.30031e-06 5.07052e-06 4.81611e-06 4.56179e-06 4.23102e-06 3.90429e-06 3.53616e-06 3.13689e-06 2.7573e-06 2.28418e-06 1.8211e-06 1.311e-06 7.22762e-07 1.48783e-07 -5.26285e-07 -1.25738e-06 -1.95871e-06 -2.74107e-06 -3.5358e-06 -4.46287e-06 -5.47406e-06 -6.46302e-06 -7.56882e-06 -8.74445e-06 -9.96059e-06 -1.12483e-05 -1.25965e-05 -1.40384e-05 -1.55775e-05 -1.72165e-05 -1.89248e-05 -2.07417e-05 -2.26617e-05 -2.46728e-05 -2.68268e-05 -2.90703e-05 -3.14269e-05 -3.38769e-05 -3.64438e-05 -3.91467e-05 -4.20306e-05 -4.50902e-05 -4.82577e-05 -5.15753e-05 -5.50239e-05 -5.8628e-05 -6.24739e-05 -6.65266e-05 -7.0781e-05 -7.5201e-05 -7.9765e-05 -8.4532e-05 -8.95282e-05 -9.46975e-05 -0.00010006 -0.00010568 -0.000111502 -0.000117565 -0.000123881 -0.000130383 -0.000137104 -0.000144039 -0.000151188 -0.000158615 -0.000166174 -0.000173966 -0.00018198 -0.00019013 -0.000198473 -0.000207023 -0.000215747 -0.000224592 -0.000233567 -0.000242653 -0.000251902 -0.000261276 -0.000270782 -0.000280413 -0.000290105 -0.000299877 -0.000309683 -0.000319522 -0.000329363 -0.000339148 -0.000348847 -0.00035848 -0.0003679 -0.000377056 -0.000385802 -0.000394012 -0.000401645 -0.000408478 -0.00041429 -0.00041879 -0.000421539 -0.000422115 -0.000419846 -0.000413946 -0.000403592 -0.000387763 -0.000365379 -0.000335332 -0.000296579 -0.000248296 -0.000189931 -0.000121171 -4.21719e-05 4.67376e-05 0.000144762 0.000250856 0.000363806 0.000482241 0.000604554 0.00072899 0.000853518 0.0009758 0.00109354 0.00120402 0.00130462 0.0013927 0.00146599 0.00152235 0.00155999 0.00157764 0.00157444 0.00155015 0.00150478 0.00143886 0.00135334 0.00124948 0.00112902 0.000993958 0.000846661 0.000689822 0.000526344 0.000359257 0.000191673 2.66095e-05 -0.000132841 -0.00028382 -0.000423669 -0.000550086 -0.000660953 -0.000754664 -0.000829922 -0.000885959 -0.000922468 -0.000939633 -0.000938095 -0.000919093 -0.000884207 -0.000835624 -0.000775823 -0.000707634 -0.000633937 -0.000557627 -0.000481419 -0.000407744 -0.00033864 -0.000275727 -0.000219949 -0.000171823 -0.000131458 -9.83978e-05 -7.20996e-05 -5.16566e-05 -3.61996e-05 -2.48751e-05 -1.67544e-05 -1.10964e-05 -7.30786e-06 -4.8012e-06 -3.18963e-06 -2.18641e-06 -1.57477e-06 -1.23179e-06 -1.03502e-06 -9.33588e-07 -8.83383e-07 -8.55326e-07 -8.68724e-07 -8.63567e-07 -8.52218e-07 -8.52975e-07 -8.8333e-07 -9.02496e-07 -8.78056e-07 -8.24639e-07 -8.04701e-07 -8.09057e-07 -8.3274e-07 -8.32597e-07 -8.91587e-07 -9.17348e-07 -9.00137e-07 -8.68296e-07 -8.31703e-07 -8.11855e-07 -8.53294e-07 -8.71389e-07 -8.95593e-07 -8.85727e-07 -8.71047e-07 -8.72184e-07 -8.43082e-07 -8.22036e-07 -8.3976e-07 -8.78242e-07 -8.72443e-07 -8.50949e-07 -8.26738e-07 -8.46144e-07 -8.12497e-07 -8.09816e-07 -8.32354e-07 -8.38773e-07 -8.64177e-07 -8.83064e-07 -8.57728e-07 -8.38484e-07 -8.07229e-07 -8.02214e-07 -8.07916e-07 -8.13253e-07 -8.00405e-07 -7.99107e-07 -8.08225e-07 -8.18186e-07 -8.11174e-07 -8.08195e-07 -7.61432e-07 -7.69179e-07 -7.71628e-07 -8.08265e-07 -7.91152e-07 -8.08937e-07 -7.72907e-07 -7.7086e-07 -7.62906e-07 -8.08876e-07 -8.11202e-07 -8.17428e-07 -8.04822e-07 -7.90922e-07 -7.879e-07 -7.99524e-07 -7.96276e-07 -7.94795e-07 -8.05292e-07 -8.425e-07 -8.66169e-07 -8.91083e-07 -8.65422e-07 -8.30502e-07 -8.17963e-07 -7.95258e-07 -8.02551e-07 -8.43611e-07 -8.30811e-07 -8.5774e-07 -8.79811e-07 -8.85667e-07 -8.43876e-07 -8.20941e-07 -8.43229e-07 -8.81762e-07 -8.89522e-07 -9.06239e-07 -9.13894e-07 -8.89204e-07 -8.74901e-07 -8.39333e-07 -8.63951e-07 -9.02859e-07 -9.32542e-07 -9.40846e-07 -9.04659e-07 -8.45736e-07 -8.57461e-07 -8.409e-07 -8.29479e-07 -8.39815e-07 -8.9698e-07 -9.44746e-07 -9.69964e-07 -1.01026e-06 -1.12894e-06 -1.34912e-06 -1.69437e-06 -2.19919e-06 -2.98658e-06 -4.09685e-06 -5.59686e-06 -7.55878e-06 -1.00483e-05 -1.31305e-05 -1.67579e-05 -2.09082e-05 -2.55845e-05 -3.08007e-05 -3.67127e-05 -4.35584e-05 -5.18655e-05 -6.24775e-05 -7.63667e-05 -9.4807e-05 -0.000119308 -0.000151096 -0.000191394 -0.000240863 -0.000299545 -0.000366752 -0.000440913 -0.000519818 -0.000600591 -0.000679898 -0.000754227 -0.000820154 -0.000874393 -0.000914164 -0.000937155 -0.00094175 -0.000926756 -0.00089167 -0.000836483 -0.000761669 -0.000668161 -0.000557361 -0.000430908 -0.000290943 -0.000139798 1.99079e-05 0.000185404 0.000353657 0.000521709 0.00068652 0.000845132 0.000994671 0.00113239 0.00125578 0.00136262 0.00145085 0.00151889 0.00156557 0.00159013 0.0015924 0.00157269 0.00153206 0.00147204 0.00139469 0.00130237 0.00119748 0.00108267 0.000960392 0.000833219 0.000703378 0.000573218 0.000444994 0.000320942 0.000203239 9.38301e-05 -5.59233e-06 -9.37468e-05 -0.000169873 -0.000233873 -0.000286043 -0.000327256 -0.000358657 -0.000381583 -0.00039743 -0.000407559 -0.000413141 -0.00041515 -0.00041435 -0.000411402 -0.000406846 -0.000401015 -0.000394228 -0.000386721 -0.000378659 -0.000370165 -0.00036128 -0.000352127 -0.000342786 -0.000333294 -0.000323792 -0.000314263 -0.000304726 -0.000295249 -0.000285867 -0.000276558 -0.000267373 -0.000258274 -0.000249306 -0.000240487 -0.000231775 -0.000223208 -0.000214777 -0.000206472 -0.000198268 -0.000190247 -0.000182407 -0.000174735 -0.000167207 -0.000159864 -0.000152755 -0.00014577 -0.000139027 -0.00013251 -0.000126164 -0.000120021 -0.000114049 -0.00010829 -0.000102767 -9.74204e-05 -9.23257e-05 -8.74131e-05 -8.26632e-05 -7.81381e-05 -7.38054e-05 -6.96175e-05 -6.55832e-05 -6.17392e-05 -5.80721e-05 -5.46404e-05 -5.13411e-05 -4.81706e-05 -4.51355e-05 -4.21771e-05 -3.94017e-05 -3.67872e-05 -3.43086e-05 -3.19315e-05 -2.96509e-05 -2.74746e-05 -2.53816e-05 -2.343e-05 -2.15718e-05 -1.98108e-05 -1.81378e-05 -1.65328e-05 -1.50279e-05 -1.36232e-05 -1.23078e-05 -1.10537e-05 -9.85285e-06 -8.6949e-06 -7.59895e-06 -6.62799e-06 -5.62221e-06 -4.6957e-06 -3.90575e-06 -3.12302e-06 -2.41498e-06 -1.66981e-06 -9.84185e-07 -3.9859e-07 1.97778e-07 7.13605e-07 1.1835e-06 1.66141e-06 2.04655e-06 2.45613e-06 2.83447e-06 3.17775e-06 3.51362e-06 3.78416e-06 4.04949e-06 4.3121e-06 4.5617e-06 4.83157e-06 5.01097e-06 5.1704e-06 5.29796e-06 5.36579e-06 5.52201e-06 5.66367e-06 5.74383e-06 5.82081e-06 5.84994e-06 5.87859e-06 5.92306e-06 5.89117e-06 5.89197e-06 5.84053e-06 5.78934e-06 5.79205e-06 5.74898e-06 5.7065e-06 5.68333e-06 5.59991e-06 5.54518e-06 5.4716e-06 5.3508e-06 5.26252e-06 5.15842e-06 5.04766e-06 4.95016e-06 4.8213e-06 4.70587e-06 4.58662e-06 4.4535e-06 4.33146e-06 4.18897e-06 3.99037e-06 3.86981e-06 3.78004e-06 3.65893e-06 3.53955e-06 3.2868e-06 3.01384e-06 2.80867e-06 2.60334e-06 2.42603e-06 2.25568e-06 2.06195e-06 1.90103e-06 1.74073e-06 1.51108e-06 1.28755e-06 1.13813e-06 9.79138e-07 7.83453e-07 6.11937e-07 4.92809e-07 4.05659e-07 3.19805e-07 2.42259e-07 1.83234e-07 1.39268e-07 9.98506e-08 4.67065e-08 0 0 
0 0 8.16733e-08 1.77233e-07 2.45999e-07 3.21323e-07 4.26828e-07 5.71579e-07 7.45841e-07 9.43538e-07 1.18096e-06 1.46698e-06 1.79192e-06 2.13263e-06 2.48539e-06 2.90357e-06 3.34945e-06 3.75549e-06 4.17463e-06 4.61767e-06 5.06713e-06 5.53217e-06 5.99033e-06 6.45087e-06 6.89682e-06 7.34662e-06 7.72386e-06 8.05453e-06 8.37076e-06 8.69142e-06 9.08232e-06 9.4172e-06 9.70729e-06 1.0022e-05 1.03388e-05 1.06499e-05 1.09239e-05 1.11778e-05 1.14009e-05 1.16505e-05 1.1891e-05 1.21467e-05 1.2381e-05 1.25534e-05 1.27529e-05 1.29523e-05 1.31025e-05 1.325e-05 1.33388e-05 1.3444e-05 1.35521e-05 1.35845e-05 1.36433e-05 1.36814e-05 1.36705e-05 1.36865e-05 1.36017e-05 1.34876e-05 1.33492e-05 1.31387e-05 1.30141e-05 1.28329e-05 1.25414e-05 1.22824e-05 1.19142e-05 1.15238e-05 1.11418e-05 1.06775e-05 1.01694e-05 9.61329e-06 9.00153e-06 8.33874e-06 7.58926e-06 6.81937e-06 5.97724e-06 5.06076e-06 4.10396e-06 3.02587e-06 1.89464e-06 6.62963e-07 -6.86362e-07 -2.0484e-06 -3.54817e-06 -5.14601e-06 -6.86616e-06 -8.78077e-06 -1.07057e-05 -1.27718e-05 -1.49829e-05 -1.72982e-05 -1.97974e-05 -2.23932e-05 -2.51709e-05 -2.80867e-05 -3.12099e-05 -3.45105e-05 -3.80251e-05 -4.17232e-05 -4.55852e-05 -4.9692e-05 -5.40024e-05 -5.85399e-05 -6.33798e-05 -6.84075e-05 -7.36891e-05 -7.92654e-05 -8.51289e-05 -9.12604e-05 -9.76941e-05 -0.000104463 -0.000111534 -0.000118991 -0.000126831 -0.000135024 -0.000143642 -0.000152592 -0.000161959 -0.00017174 -0.00018192 -0.000192495 -0.000203547 -0.000215004 -0.000226893 -0.000239276 -0.00025207 -0.000265394 -0.000279162 -0.000293414 -0.00030812 -0.000323191 -0.00033872 -0.000354719 -0.000371081 -0.000387841 -0.00040495 -0.00042247 -0.000440315 -0.00045844 -0.000476888 -0.000495648 -0.000514696 -0.000534002 -0.000553568 -0.000573358 -0.000593353 -0.000613458 -0.000633686 -0.000653995 -0.0006742 -0.000694435 -0.000714545 -0.00073441 -0.000753875 -0.000772883 -0.000791151 -0.000808491 -0.000824665 -0.000839279 -0.00085192 -0.000861958 -0.000868636 -0.000870976 -0.00086777 -0.000857613 -0.000838734 -0.000809073 -0.000766429 -0.000708603 -0.00063348 -0.000539202 -0.000424367 -0.000288281 -0.000130942 4.69667e-05 0.000244113 0.000458499 0.000687746 0.000929084 0.00117929 0.00143487 0.00169162 0.00194513 0.00219048 0.00242236 0.0026354 0.0028242 0.00298378 0.00310956 0.00319775 0.00324535 0.00325052 0.00321226 0.00313047 0.00300599 0.00284046 0.00263644 0.00239715 0.00212668 0.00182972 0.00151162 0.00117816 0.00083552 0.000490033 0.000148105 -0.000183934 -0.000500131 -0.000794889 -0.0010632 -0.00130066 -0.00150365 -0.00166934 -0.00179586 -0.00188225 -0.00192858 -0.00193597 -0.00190666 -0.00184374 -0.00175141 -0.00163458 -0.00149883 -0.00135 -0.0011942 -0.00103701 -0.000883657 -0.000738528 -0.000605194 -0.00048599 -0.000382326 -0.000294458 -0.000222018 -0.0001638 -0.000118237 -8.35389e-05 -5.78007e-05 -3.92101e-05 -2.61435e-05 -1.72285e-05 -1.13134e-05 -7.49598e-06 -5.05586e-06 -3.60426e-06 -2.78918e-06 -2.3138e-06 -2.04683e-06 -1.90994e-06 -1.81982e-06 -1.75219e-06 -1.71217e-06 -1.71386e-06 -1.70495e-06 -1.73898e-06 -1.76769e-06 -1.78319e-06 -1.78021e-06 -1.79943e-06 -1.79994e-06 -1.77505e-06 -1.80842e-06 -1.84557e-06 -1.87257e-06 -1.88761e-06 -1.85685e-06 -1.81915e-06 -1.80113e-06 -1.844e-06 -1.86261e-06 -1.90501e-06 -1.88214e-06 -1.85708e-06 -1.77839e-06 -1.76546e-06 -1.725e-06 -1.74852e-06 -1.73733e-06 -1.75385e-06 -1.74406e-06 -1.75251e-06 -1.75577e-06 -1.76214e-06 -1.74993e-06 -1.7039e-06 -1.68872e-06 -1.69434e-06 -1.69899e-06 -1.69991e-06 -1.68934e-06 -1.69541e-06 -1.69234e-06 -1.6865e-06 -1.68634e-06 -1.67296e-06 -1.66463e-06 -1.66934e-06 -1.65802e-06 -1.65088e-06 -1.6178e-06 -1.59281e-06 -1.58869e-06 -1.57681e-06 -1.54801e-06 -1.54572e-06 -1.54837e-06 -1.57827e-06 -1.59106e-06 -1.59494e-06 -1.61926e-06 -1.65166e-06 -1.65581e-06 -1.65981e-06 -1.64576e-06 -1.64732e-06 -1.65933e-06 -1.66421e-06 -1.68024e-06 -1.69614e-06 -1.70065e-06 -1.71476e-06 -1.70764e-06 -1.689e-06 -1.66903e-06 -1.67703e-06 -1.72527e-06 -1.74695e-06 -1.75263e-06 -1.75877e-06 -1.75629e-06 -1.77031e-06 -1.75322e-06 -1.75666e-06 -1.72697e-06 -1.77345e-06 -1.80176e-06 -1.89309e-06 -1.92154e-06 -1.94365e-06 -1.90548e-06 -1.89737e-06 -1.86461e-06 -1.88784e-06 -1.92451e-06 -1.94492e-06 -1.91264e-06 -1.87612e-06 -1.84709e-06 -1.8268e-06 -1.85134e-06 -1.83993e-06 -1.81809e-06 -1.84236e-06 -1.88226e-06 -1.95418e-06 -2.0929e-06 -2.4041e-06 -2.91193e-06 -3.7557e-06 -5.03038e-06 -6.85851e-06 -9.37619e-06 -1.27445e-05 -1.70891e-05 -2.25188e-05 -2.91476e-05 -3.69516e-05 -4.5796e-05 -5.57426e-05 -6.68962e-05 -7.95924e-05 -9.45555e-05 -0.000113015 -0.000136728 -0.000168043 -0.000209685 -0.000264481 -0.000335116 -0.00042356 -0.000530977 -0.000656913 -0.000799507 -0.000955168 -0.00111891 -0.00128448 -0.0014451 -0.00159348 -0.00172265 -0.0018262 -0.00189868 -0.00193569 -0.00193407 -0.00189178 -0.00180804 -0.0016831 -0.00151823 -0.00131559 -0.00107818 -0.000809735 -0.00051472 -0.000198132 0.000134545 0.000477495 0.000824516 0.00116935 0.00150585 0.00182793 0.00212978 0.00240588 0.0026512 0.00286118 0.00303195 0.00316036 0.00324424 0.00328231 0.00327453 0.00322213 0.00312737 0.00299382 0.00282576 0.00262821 0.00240633 0.0021654 0.00191052 0.00164669 0.00137874 0.00111123 0.000849038 0.000596633 0.000358413 0.00013829 -6.0517e-05 -0.00023565 -0.000385945 -0.000511374 -0.000612951 -0.000692552 -0.000752717 -0.000796233 -0.000825912 -0.000844352 -0.000853858 -0.000856426 -0.000853665 -0.000846725 -0.000836592 -0.000824014 -0.000809544 -0.000793669 -0.000776653 -0.000758813 -0.000740337 -0.000721333 -0.000702042 -0.000682506 -0.000662861 -0.000643207 -0.0006237 -0.000604204 -0.000584871 -0.000565737 -0.000546776 -0.000528049 -0.000509571 -0.000491368 -0.000473441 -0.000455824 -0.000438496 -0.000421469 -0.000404713 -0.000388259 -0.000372173 -0.000356424 -0.000341029 -0.000325954 -0.000311337 -0.000297128 -0.000283272 -0.000269826 -0.000256817 -0.000244221 -0.000232098 -0.000220375 -0.00020911 -0.000198248 -0.000187775 -0.000177755 -0.000168101 -0.000158815 -0.000149923 -0.000141416 -0.000133223 -0.000125413 -0.000117919 -0.000110788 -0.000104002 -9.75149e-05 -9.13275e-05 -8.54304e-05 -7.97855e-05 -7.43984e-05 -6.93128e-05 -6.44549e-05 -5.97882e-05 -5.54041e-05 -5.1232e-05 -4.72524e-05 -4.35051e-05 -3.99047e-05 -3.6474e-05 -3.3247e-05 -3.0197e-05 -2.73433e-05 -2.46306e-05 -2.20865e-05 -1.9629e-05 -1.73378e-05 -1.51422e-05 -1.30889e-05 -1.11687e-05 -9.25645e-06 -7.53384e-06 -5.93372e-06 -4.42975e-06 -3.05685e-06 -1.68848e-06 -4.38307e-07 7.0795e-07 1.79837e-06 2.78369e-06 3.71836e-06 4.59502e-06 5.39158e-06 6.18152e-06 6.8836e-06 7.53107e-06 8.12771e-06 8.67107e-06 9.18184e-06 9.60396e-06 1.00402e-05 1.04452e-05 1.0747e-05 1.10682e-05 1.12886e-05 1.14424e-05 1.16864e-05 1.18586e-05 1.20105e-05 1.2128e-05 1.21517e-05 1.21943e-05 1.21937e-05 1.21672e-05 1.21747e-05 1.20937e-05 1.20253e-05 1.19576e-05 1.18437e-05 1.17238e-05 1.15626e-05 1.13898e-05 1.12545e-05 1.10518e-05 1.08313e-05 1.06173e-05 1.04022e-05 1.02063e-05 9.98818e-06 9.74116e-06 9.46622e-06 9.17843e-06 8.89854e-06 8.63745e-06 8.33816e-06 7.98044e-06 7.69458e-06 7.39241e-06 7.10759e-06 6.76528e-06 6.35113e-06 5.93636e-06 5.51053e-06 5.09156e-06 4.67308e-06 4.26157e-06 3.85101e-06 3.46538e-06 3.09257e-06 2.68116e-06 2.29308e-06 1.96761e-06 1.64857e-06 1.34349e-06 1.07944e-06 8.61157e-07 6.77125e-07 5.15411e-07 3.82229e-07 2.83195e-07 2.1039e-07 1.02143e-07 0 0 
0 0 1.19759e-07 2.45999e-07 3.24548e-07 4.31404e-07 5.89192e-07 7.8641e-07 1.00121e-06 1.24841e-06 1.55931e-06 1.91251e-06 2.28654e-06 2.65391e-06 3.08907e-06 3.61979e-06 4.05969e-06 4.47351e-06 4.99774e-06 5.51982e-06 6.07916e-06 6.64849e-06 7.19551e-06 7.73596e-06 8.26215e-06 8.75559e-06 9.11542e-06 9.52982e-06 9.91114e-06 1.04141e-05 1.09166e-05 1.12098e-05 1.15897e-05 1.20042e-05 1.24117e-05 1.27529e-05 1.30512e-05 1.33137e-05 1.35991e-05 1.39393e-05 1.42687e-05 1.46255e-05 1.4859e-05 1.5067e-05 1.5412e-05 1.56133e-05 1.58089e-05 1.59482e-05 1.60687e-05 1.62941e-05 1.64102e-05 1.64486e-05 1.66411e-05 1.66453e-05 1.67326e-05 1.67412e-05 1.65702e-05 1.64941e-05 1.62973e-05 1.6156e-05 1.61743e-05 1.58361e-05 1.55705e-05 1.53185e-05 1.48445e-05 1.45429e-05 1.41246e-05 1.35757e-05 1.30497e-05 1.24298e-05 1.18066e-05 1.10385e-05 1.02383e-05 9.43866e-06 8.46664e-06 7.51263e-06 6.40936e-06 5.21901e-06 3.98124e-06 2.55068e-06 1.12051e-06 -3.31162e-07 -2.09508e-06 -3.83754e-06 -5.91079e-06 -8.01109e-06 -1.00571e-05 -1.24376e-05 -1.48408e-05 -1.74608e-05 -2.02417e-05 -2.31217e-05 -2.62552e-05 -2.95338e-05 -3.30816e-05 -3.68447e-05 -4.08309e-05 -4.49482e-05 -4.92753e-05 -5.39473e-05 -5.87755e-05 -6.39846e-05 -6.95098e-05 -7.51393e-05 -8.12015e-05 -8.7562e-05 -9.41851e-05 -0.000101105 -0.000108438 -0.000116094 -0.000124173 -0.000132744 -0.000141653 -0.000151019 -0.000160812 -0.000170974 -0.000181731 -0.000192887 -0.000204502 -0.000216664 -0.000229383 -0.000242477 -0.00025619 -0.000270394 -0.000285135 -0.000300525 -0.0003164 -0.000332879 -0.000349862 -0.000367244 -0.000385401 -0.000403994 -0.000422995 -0.00044258 -0.000462572 -0.000483095 -0.000503921 -0.000525149 -0.000546784 -0.000568892 -0.000591362 -0.000614153 -0.000637278 -0.000660682 -0.000684357 -0.000708203 -0.000732294 -0.000756472 -0.000780655 -0.000805048 -0.000829363 -0.000853419 -0.000877198 -0.000900617 -0.000923409 -0.000945529 -0.000966519 -0.000986206 -0.00100411 -0.00101957 -0.00103207 -0.00104055 -0.001044 -0.00104117 -0.00103008 -0.00100854 -0.000974206 -0.000924316 -0.000856263 -0.000767278 -0.000655002 -0.00051794 -0.000355039 -0.000166439 4.7104e-05 0.000283825 0.000541498 0.000817035 0.0011073 0.00140837 0.00171575 0.00202505 0.00233044 0.00262626 0.00290594 0.0031631 0.00339096 0.00358346 0.00373502 0.00384106 0.0038984 0.00390435 0.00385797 0.00375916 0.00360895 0.00340945 0.00316343 0.00287512 0.00254927 0.00219163 0.00180853 0.00140694 0.000994377 0.000578677 0.000167357 -0.00023197 -0.000612163 -0.000966339 -0.00128862 -0.00157354 -0.00181688 -0.00201518 -0.00216619 -0.00226868 -0.00232278 -0.00232991 -0.00229265 -0.00221484 -0.00210164 -0.00195891 -0.00179359 -0.00161281 -0.00142377 -0.00123352 -0.0010484 -0.000873688 -0.000713576 -0.000570969 -0.000447149 -0.000342905 -0.000257252 -0.000188848 -0.000135608 -9.52248e-05 -6.54735e-05 -4.41827e-05 -2.92399e-05 -1.91621e-05 -1.25206e-05 -8.2655e-06 -5.69874e-06 -4.13251e-06 -3.20163e-06 -2.64323e-06 -2.28722e-06 -2.09996e-06 -1.97144e-06 -1.92845e-06 -1.92676e-06 -1.92204e-06 -1.91465e-06 -1.91959e-06 -1.98161e-06 -2.09687e-06 -2.19628e-06 -2.26918e-06 -2.16691e-06 -2.23871e-06 -2.20616e-06 -2.22984e-06 -2.24908e-06 -2.2181e-06 -2.19654e-06 -2.21857e-06 -2.18672e-06 -2.23414e-06 -2.25778e-06 -2.23552e-06 -2.16891e-06 -1.99864e-06 -2.0428e-06 -2.02135e-06 -2.02079e-06 -1.94011e-06 -1.93626e-06 -1.9905e-06 -2.01821e-06 -1.96022e-06 -2.07886e-06 -2.06293e-06 -2.01953e-06 -2.0042e-06 -1.97851e-06 -1.93558e-06 -1.96855e-06 -1.97143e-06 -2.01829e-06 -1.97951e-06 -1.95144e-06 -1.98213e-06 -1.98576e-06 -1.96324e-06 -1.94039e-06 -1.95962e-06 -1.9813e-06 -1.88256e-06 -1.92082e-06 -1.87375e-06 -1.86091e-06 -1.71667e-06 -1.7643e-06 -1.71434e-06 -1.86044e-06 -1.87622e-06 -1.9235e-06 -1.88418e-06 -1.98098e-06 -1.95222e-06 -1.92003e-06 -1.93053e-06 -1.94805e-06 -1.94938e-06 -1.93301e-06 -1.98019e-06 -2.03476e-06 -1.99348e-06 -1.98278e-06 -1.93038e-06 -1.95184e-06 -1.96675e-06 -1.98602e-06 -2.04358e-06 -2.07715e-06 -1.97141e-06 -2.03451e-06 -2.01024e-06 -1.95771e-06 -1.9524e-06 -2.01972e-06 -2.02389e-06 -2.06841e-06 -2.04623e-06 -2.22207e-06 -2.28323e-06 -2.30661e-06 -2.29815e-06 -2.26817e-06 -2.30758e-06 -2.28356e-06 -2.29241e-06 -2.2978e-06 -2.25833e-06 -2.24447e-06 -2.30406e-06 -2.23704e-06 -2.31653e-06 -2.22912e-06 -2.15112e-06 -2.09965e-06 -2.14911e-06 -2.32588e-06 -2.65317e-06 -3.22083e-06 -4.1326e-06 -5.55279e-06 -7.68579e-06 -1.06567e-05 -1.46719e-05 -1.98254e-05 -2.62983e-05 -3.41827e-05 -4.33937e-05 -5.39688e-05 -6.58236e-05 -7.90419e-05 -9.39826e-05 -0.000111264 -0.000132498 -0.00015972 -0.000195602 -0.000243623 -0.000307465 -0.000390275 -0.000495037 -0.000622856 -0.000773702 -0.000945212 -0.00113322 -0.00133175 -0.00153308 -0.00172859 -0.00190964 -0.00206768 -0.00219468 -0.00228413 -0.00233066 -0.00233038 -0.00228095 -0.00218141 -0.00203211 -0.00183464 -0.00159157 -0.00130663 -0.000984141 -0.00062963 -0.000249 0.000151018 0.000563499 0.000980962 0.00139606 0.00180117 0.002189 0.00255255 0.00288527 0.00318102 0.00343446 0.00364059 0.00379584 0.00389746 0.00394379 0.00393467 0.00387137 0.00375716 0.00359593 0.00339298 0.0031544 0.00288657 0.00259621 0.00228917 0.00197163 0.00164903 0.00132729 0.00101151 0.000707464 0.000420574 0.000155461 -8.361e-05 -0.000293914 -0.000473896 -0.000623614 -0.000744227 -0.000838313 -0.000908847 -0.000959327 -0.000993389 -0.00101418 -0.00102449 -0.00102657 -0.0010224 -0.00101359 -0.00100111 -0.000985706 -0.00096818 -0.00094886 -0.000928248 -0.0009067 -0.000884385 -0.000861639 -0.000838419 -0.000815042 -0.00079155 -0.000767939 -0.000744382 -0.000721207 -0.000698146 -0.000675226 -0.000652629 -0.00063023 -0.000608111 -0.000586302 -0.000564834 -0.000543746 -0.000523002 -0.000502653 -0.000482711 -0.000463169 -0.000443877 -0.00042508 -0.000406676 -0.000388771 -0.000371255 -0.000354136 -0.000337738 -0.000321747 -0.000306144 -0.000291132 -0.000276554 -0.000262563 -0.000249139 -0.000236136 -0.000223757 -0.000211713 -0.00020021 -0.00018921 -0.000178628 -0.000168415 -0.000158717 -0.000149391 -0.000140405 -0.000131876 -0.000123636 -0.00011587 -0.000108515 -0.000101443 -9.48219e-05 -8.8425e-05 -8.22969e-05 -7.64543e-05 -7.10211e-05 -6.57048e-05 -6.06639e-05 -5.59942e-05 -5.14568e-05 -4.72394e-05 -4.32193e-05 -3.93257e-05 -3.5657e-05 -3.2182e-05 -2.89519e-05 -2.58827e-05 -2.30401e-05 -2.03058e-05 -1.76933e-05 -1.53058e-05 -1.29132e-05 -1.0871e-05 -8.7702e-06 -6.69193e-06 -4.94266e-06 -3.17912e-06 -1.70984e-06 -2.44108e-07 1.21973e-06 2.4845e-06 3.70421e-06 4.84333e-06 5.82403e-06 6.84969e-06 7.67858e-06 8.5378e-06 9.33618e-06 1.00235e-05 1.06705e-05 1.12659e-05 1.18359e-05 1.23107e-05 1.26504e-05 1.31674e-05 1.34591e-05 1.37615e-05 1.41396e-05 1.41698e-05 1.434e-05 1.45792e-05 1.47004e-05 1.49123e-05 1.49507e-05 1.49107e-05 1.49461e-05 1.48022e-05 1.48178e-05 1.47506e-05 1.4561e-05 1.44826e-05 1.43533e-05 1.42037e-05 1.40328e-05 1.37289e-05 1.35383e-05 1.33587e-05 1.30356e-05 1.27443e-05 1.24313e-05 1.2184e-05 1.19528e-05 1.16935e-05 1.13826e-05 1.10151e-05 1.06316e-05 1.02914e-05 1.00302e-05 9.56469e-06 9.10319e-06 8.75824e-06 8.39114e-06 8.07468e-06 7.61918e-06 7.13464e-06 6.62763e-06 6.11876e-06 5.60076e-06 5.10171e-06 4.61549e-06 4.12956e-06 3.74962e-06 3.35036e-06 2.85865e-06 2.4577e-06 2.11841e-06 1.76436e-06 1.43302e-06 1.1449e-06 9.16453e-07 7.16477e-07 5.27463e-07 3.77262e-07 2.83388e-07 1.41371e-07 0 0 