<?xml version="1.0"?>
<VTKFile type="ImageData" version="0.1" byte_order="LittleEndian">
<ImageData WholeExtent="0 599 0 599 0 0" Origin="0 0 0" Spacing="5 5 0">
<Piece Extent="0 599 0 599 0 0">
<PointData Scalars="Amplitude">
<DataArray type="Float32" Name="Amplitude" format="ascii">
0 0 0 0 0 0 0 0 0 0 0 0 0 0 0 0 0 0 0 0 0 0 0 0 0 0 0 0 0 0 0 0 0 0 0 0 0 0 0 0 0 0 0 0 0 0 0 0 0 0 0 0 0 0 0 0 0 0 0 0 0 0 0 0 0 0 0 0 0 0 0 0 0 0 0 0 0 0 0 0 0 0 0 0 0 0 0 0 0 0 0 0 0 0 0 0 0 0 0 0 0 0 0 0 0 0 0 0 0 0 0 0 0 0 0 0 0 0 0 0 0 0 0 0 0 0 0 0 0 0 0 0 0 0 0 0 0 0 0 0 0 0 0 0 0 0 0 0 0 0 0 0 0 0 0 0 0 0 0 0 0 0 0 0 0 0 0 0 0 0 0 0 0 0 0 0 0 0 0 0 0 0 0 0 0 0 0 0 0 0 0 0 0 0 0 0 0 0 0 0 0 0 0 0 0 0 0 0 0 0 0 0 0 0 0 0 0 0 0 0 0 0 0 0 0 0 0 0 0 0 0 0 0 0 0 0 0 0 0 0 0 0 0 0 0 0 0 0 0 0 0 0 0 0 0 0 0 0 0 0 0 0 0 0 0 0 0 0 0 0 0 0 0 0 0 0 0 0 0 0 0 0 0 0 0 0 0 0 0 0 0 0 0 0 0 0 0 0 0 0 0 0 0 0 0 0 0 0 0 0 0 0 0 0 0 0 0 0 0 0 0 0 0 0 0 0 0 0 0 0 0 0 0 0 0 0 0 0 0 0 0 0 0 0 0 0 0 0 0 0 0 0 0 0 0 0 0 0 0 0 0 0 0 0 0 0 0 0 0 0 0 0 0 0 0 0 0 0 0 0 0 0 0 0 0 0 0 0 0 0 0 0 0 0 0 0 0 0 0 0 0 0 0 0 0 0 0 0 0 0 0 0 0 0 0 0 0 0 0 0 0 0 0 0 0 0 0 0 0 0 0 0 0 0 0 0 0 0 0 0 0 0 0 0 0 0 0 0 0 0 0 0 0 0 0 0 0 0 0 0 0 0 0 0 0 0 0 0 0 0 0 0 0 0 0 0 0 0 0 0 0 0 0 0 0 0 0 0 0 0 0 0 0 0 0 0 0 0 0 0 0 0 0 0 0 0 0 0 0 0 0 0 0 0 0 0 0 0 0 0 0 0 0 0 0 0 0 0 0 0 0 0 0 0 0 0 0 0 0 0 0 0 0 0 0 0 0 0 0 0 0 0 0 0 0 0 0 0 0 0 0 0 0 0 0 0 0 0 0 0 0 0 0 0 0 0 0 0 0 0 0 0 0 0 0 0 0 0 0 0 0 0 0 0 0 0 0 0 0 0 
0 0 0 0 0 0 0 0 0 0 0 0 0 0 0 0 0 0 0 0 0 0 0 0 0 0 0 0 0 0 0 0 0 0 0 0 0 0 0 0 0 0 0 0 0 0 0 0 0 0 0 0 0 0 0 0 0 0 0 0 0 0 0 0 0 0 0 0 0 0 0 0 0 0 0 0 0 0 0 0 0 0 0 0 0 0 0 0 0 0 0 0 0 0 0 0 0 0 0 0 0 0 0 0 0 0 0 0 0 0 0 0 0 0 0 0 0 0 0 0 0 0 0 0 0 0 0 0 0 0 0 0 0 0 0 0 0 0 0 0 0 0 0 0 0 0 0 0 0 0 0 0 0 0 0 0 0 0 0 0 0 0 0 0 0 0 0 0 0 0 0 0 0 0 0 0 0 0 0 0 0 0 0 0 0 0 0 0 0 0 0 0 0 0 0 0 0 0 0 0 0 0 0 0 0 0 0 0 0 0 0 0 0 0 0 0 0 0 0 0 0 0 0 0 0 0 0 0 0 0 0 0 0 0 0 0 0 0 0 0 0 0 0 0 0 0 0 0 0 0 0 0 0 0 0 0 0 0 0 0 0 0 0 0 0 0 0 0 0 0 0 0 0 0 0 0 0 0 0 0 0 0 0 0 0 0 0 0 0 0 0 0 0 0 0 0 0 0 0 0 0 0 0 0 0 0 0 0 0 0 0 0 0 0 0 0 0 0 0 0 0 0 0 0 0 0 0 0 0 0 0 0 0 0 0 0 0 0 0 0 0 0 0 0 0 0 0 0 0 0 0 0 0 0 0 0 0 0 0 0 0 0 0 0 0 0 0 0 0 0 0 0 0 0 0 0 0 0 0 0 0 0 0 0 0 0 0 0 0 0 0 0 0 0 0 0 0 0 0 0 0 0 0 0 0 0 0 0 0 0 0 0 0 0 0 0 0 0 0 0 0 0 0 0 0 0 0 0 0 0 0 0 0 0 0 0 0 0 0 0 0 0 0 0 0 0 0 0 0 0 0 0 0 0 0 0 0 0 0 0 0 0 0 0 0 0 0 0 0 0 0 0 0 0 0 0 0 0 0 0 0 0 0 0 0 0 0 0 0 0 0 0 0 0 0 0 0 0 0 0 0 0 0 0 0 0 0 0 0 0 0 0 0 0 0 0 0 0 0 0 0 0 0 0 0 0 0 0 0 0 0 0 0 0 0 0 0 0 0 0 0 0 0 0 0 0 0 0 0 0 0 0 0 0 0 0 0 0 0 0 0 0 0 0 0 0 0 0 0 0 0 0 0 0 0 0 0 0 0 0 0 0 0 0 0 0 0 0 0 0 0 0 0 0 0 0 0 0 0 0 
0 0 -1.05585e-15 1.00741e-15 1.19294e-14 5.98187e-14 1.61189e-13 2.17401e-13 -2.53585e-13 -2.43308e-12 -7.82453e-12 -1.53532e-11 -1.35709e-11 3.15015e-11 1.81836e-10 4.95752e-10 9.10573e-10 1.002e-09 -3.37301e-10 -5.08568e-09 -1.57089e-08 -3.36114e-08 -5.58917e-08 -7.01801e-08 -4.7628e-08 6.62195e-08 3.64663e-07 1.00223e-06 2.23447e-06 4.48804e-06 8.47544e-06 1.53674e-05 2.70321e-05 4.63447e-05 7.75704e-05 0.000126816 0.000202539 0.000316086 0.000482169 0.000719181 0.00104915 0.00149714 0.00208998 0.002854 0.00381191 0.00497867 0.00635669 0.00793055 0.00966192 0.0114855 0.0133068 0.015003 0.0164266 0.017414 0.0177974 0.0174198 0.016152 0.0139105 0.0106723 0.00648636 0.00147888 -0.00414947 -0.010134 -0.0161638 -0.0219059 -0.0270322 -0.0312481 -0.0343168 -0.0360797 -0.0364675 -0.0355042 -0.0333002 -0.0300391 -0.0259584 -0.021326 -0.0164175 -0.011494 -0.00678436 -0.00247329 0.00130605 0.00447293 0.00699572 0.00888505 0.0101849 0.0109623 0.0112982 0.0112781 0.0109861 0.0104993 0.0098847 0.00919779 0.00848233 0.00777095 0.00708664 0.00644412 0.00585146 0.00531207 0.00482599 0.00439097 0.00400314 0.00365819 0.00335167 0.00307905 0.00283613 0.00261897 0.00242418 0.00224888 0.00209054 0.001947 0.00181642 0.00169728 0.00158812 0.00148783 0.00139543 0.00131 0.00123092 0.00115757 0.00108932 0.00102576 0.000966506 0.000911003 0.000858834 0.000809794 0.000763815 0.000720693 0.000680153 0.000641964 0.000605972 0.00057206 0.000540048 0.000509709 0.000481043 0.000453967 0.000428344 0.000404092 0.00038115 0.000359458 0.000338897 0.000319392 0.000300923 0.000283427 0.00026676 0.000250951 0.00023599 0.000221893 0.00020856 0.00019582 0.000183721 0.000172302 0.000161495 0.000151215 0.000141435 0.000132117 0.00012325 0.000114898 0.000106993 9.94919e-05 9.23241e-05 8.5554e-05 7.90799e-05 7.29607e-05 6.70903e-05 6.15039e-05 5.62159e-05 5.12357e-05 4.65169e-05 4.20678e-05 3.77923e-05 3.36613e-05 2.97309e-05 2.59689e-05 2.24303e-05 1.90592e-05 1.5849e-05 1.28571e-05 9.99468e-06 7.21238e-06 4.55452e-06 2.0405e-06 -3.39834e-07 -2.63206e-06 -4.77547e-06 -6.82321e-06 -8.74594e-06 -1.06596e-05 -1.24819e-05 -1.41471e-05 -1.57331e-05 -1.71753e-05 -1.85155e-05 -1.99197e-05 -2.13004e-05 -2.258e-05 -2.37714e-05 -2.5001e-05 -2.6154e-05 -2.7162e-05 -2.80689e-05 -2.9e-05 -2.98557e-05 -3.06391e-05 -3.13864e-05 -3.2081e-05 -3.27467e-05 -3.34057e-05 -3.40677e-05 -3.47233e-05 -3.53672e-05 -3.59762e-05 -3.65918e-05 -3.71671e-05 -3.76281e-05 -3.80503e-05 -3.84491e-05 -3.87948e-05 -3.91211e-05 -3.95129e-05 -3.98529e-05 -4.01465e-05 -4.04555e-05 -4.07566e-05 -4.10115e-05 -4.12231e-05 -4.1436e-05 -4.16258e-05 -4.18189e-05 -4.20409e-05 -4.22655e-05 -4.24943e-05 -4.27143e-05 -4.28735e-05 -4.30546e-05 -4.31842e-05 -4.33559e-05 -4.35067e-05 -4.35853e-05 -4.35642e-05 -4.35593e-05 -4.36149e-05 -4.37451e-05 -4.38397e-05 -4.39429e-05 -4.40238e-05 -4.41368e-05 -4.42494e-05 -4.429e-05 -4.42619e-05 -4.42293e-05 -4.42188e-05 -4.42285e-05 -4.42169e-05 -4.42473e-05 -4.43064e-05 -4.43259e-05 -4.43345e-05 -4.43619e-05 -4.43875e-05 -4.44e-05 -4.44462e-05 -4.44965e-05 -4.46136e-05 -4.46629e-05 -4.46418e-05 -4.45786e-05 -4.45685e-05 -4.45195e-05 -4.44818e-05 -4.44264e-05 -4.44332e-05 -4.44061e-05 -4.43558e-05 -4.43967e-05 -4.44776e-05 -4.4496e-05 -4.44605e-05 -4.44016e-05 -4.43363e-05 -4.42991e-05 -4.43039e-05 -4.4323e-05 -4.43023e-05 -4.43137e-05 -4.43491e-05 -4.43683e-05 -4.43327e-05 -4.43531e-05 -4.44006e-05 -4.43829e-05 -4.43639e-05 -4.43046e-05 -4.42929e-05 -4.42762e-05 -4.42469e-05 -4.42543e-05 -4.43519e-05 -4.43714e-05 -4.43472e-05 -4.43067e-05 -4.43022e-05 -4.43092e-05 -4.43134e-05 -4.43092e-05 -4.43022e-05 -4.43067e-05 -4.43472e-05 -4.43714e-05 -4.43519e-05 -4.42543e-05 -4.42469e-05 -4.42762e-05 -4.42929e-05 -4.43046e-05 -4.43639e-05 -4.43829e-05 -4.44006e-05 -4.43531e-05 -4.43327e-05 -4.43683e-05 -4.43491e-05 -4.43137e-05 -4.43023e-05 -4.4323e-05 -4.43039e-05 -4.42991e-05 -4.43363e-05 -4.44016e-05 -4.44605e-05 -4.4496e-05 -4.44776e-05 -4.43967e-05 -4.43558e-05 -4.44061e-05 -4.44332e-05 -4.44264e-05 -4.44818e-05 -4.45195e-05 -4.45685e-05 -4.45786e-05 -4.46418e-05 -4.46629e-05 -4.46136e-05 -4.44965e-05 -4.44462e-05 -4.44e-05 -4.43875e-05 -4.43619e-05 -4.43345e-05 -4.43259e-05 -4.43064e-05 -4.42473e-05 -4.42169e-05 -4.42285e-05 -4.42188e-05 -4.42293e-05 -4.42619e-05 -4.429e-05 -4.42494e-05 -4.41368e-05 -4.40238e-05 -4.39429e-05 -4.38397e-05 -4.37451e-05 -4.36149e-05 -4.35593e-05 -4.35642e-05 -4.35853e-05 -4.35067e-05 -4.33559e-05 -4.31842e-05 -4.30546e-05 -4.28735e-05 -4.27143e-05 -4.24943e-05 -4.22655e-05 -4.20409e-05 -4.18189e-05 -4.16258e-05 -4.1436e-05 -4.12231e-05 -4.10115e-05 -4.07566e-05 -4.04555e-05 -4.01465e-05 -3.98529e-05 -3.95129e-05 -3.91211e-05 -3.87948e-05 -3.84491e-05 -3.80503e-05 -3.76281e-05 -3.71671e-05 -3.65918e-05 -3.59762e-05 -3.53672e-05 -3.47233e-05 -3.40677e-05 -3.34057e-05 -3.27467e-05 -3.2081e-05 -3.13864e-05 -3.06391e-05 -2.98557e-05 -2.9e-05 -2.80689e-05 -2.7162e-05 -2.6154e-05 -2.5001e-05 -2.37714e-05 -2.258e-05 -2.13004e-05 -1.99197e-05 -1.85155e-05 -1.71753e-05 -1.57331e-05 -1.41471e-05 -1.24819e-05 -1.06596e-05 -8.74594e-06 -6.82321e-06 -4.77547e-06 -2.63206e-06 -3.39834e-07 2.0405e-06 4.55452e-06 7.21238e-06 9.99468e-06 1.28571e-05 1.5849e-05 1.90592e-05 2.24303e-05 2.59689e-05 2.97309e-05 3.36613e-05 3.77923e-05 4.20678e-05 4.65169e-05 5.12357e-05 5.62159e-05 6.15039e-05 6.70903e-05 7.29607e-05 7.90799e-05 8.5554e-05 9.23241e-05 9.94919e-05 0.000106993 0.000114898 0.00012325 0.000132117 0.000141435 0.000151215 0.000161495 0.000172302 0.000183721 0.00019582 0.00020856 0.000221893 0.00023599 0.000250951 0.00026676 0.000283427 0.000300923 0.000319392 0.000338897 0.000359458 0.00038115 0.000404092 0.000428344 0.000453967 0.000481043 0.000509709 0.000540048 0.00057206 0.000605972 0.000641964 0.000680153 0.000720693 0.000763815 0.000809794 0.000858834 0.000911003 0.000966506 0.00102576 0.00108932 0.00115757 0.00123092 0.00131 0.00139543 0.00148783 0.00158812 0.00169728 0.00181642 0.001947 0.00209054 0.00224888 0.00242418 0.00261897 0.00283613 0.00307905 0.00335167 0.00365819 0.00400314 0.00439097 0.00482599 0.00531207 0.00585146 0.00644412 0.00708664 0.00777095 0.00848233 0.0091978 0.0098847 0.0104993 0.0109861 0.0112781 0.0112982 0.0109624 0.0101849 0.00888507 0.00699576 0.00447299 0.0013061 -0.00247322 -0.0067843 -0.0114939 -0.0164175 -0.021326 -0.0259584 -0.0300392 -0.0333002 -0.0355042 -0.0364675 -0.0360797 -0.0343168 -0.0312481 -0.0270322 -0.0219059 -0.0161639 -0.0101341 -0.00414955 0.00147884 0.00648632 0.0106723 0.0139105 0.016152 0.0174198 0.0177974 0.017414 0.0164266 0.015003 0.0133069 0.0114855 0.00966193 0.00793056 0.0063567 0.00497867 0.0038119 0.002854 0.00208998 0.00149714 0.00104915 0.000719181 0.00048217 0.000316086 0.000202539 0.000126816 7.75704e-05 4.63449e-05 2.70322e-05 1.53676e-05 8.47561e-06 4.48795e-06 2.23357e-06 9.99394e-07 3.63507e-07 6.60585e-08 -4.74474e-08 -6.99486e-08 -5.57155e-08 -3.35082e-08 -1.56617e-08 -5.0707e-09 -3.36427e-10 9.99005e-10 9.07908e-10 4.94317e-10 1.81314e-10 3.14119e-11 -1.35323e-11 -1.53098e-11 -7.80255e-12 -2.42632e-12 -2.52968e-13 2.16835e-13 1.61537e-13 6.24669e-14 1.72981e-14 2.09099e-15 0 0 
0 0 1.00741e-15 1.62691e-14 6.51089e-14 1.9286e-13 3.22037e-13 -8.30442e-14 -2.54521e-12 -9.47507e-12 -2.09913e-11 -2.46866e-11 2.32126e-11 2.13562e-10 6.5594e-10 1.32924e-09 1.72964e-09 3.28076e-10 -5.89953e-09 -2.12183e-08 -4.91444e-08 -8.76304e-08 -1.20698e-07 -1.06326e-07 3.97747e-08 4.66927e-07 1.42643e-06 3.33708e-06 6.8985e-06 1.32795e-05 2.44078e-05 4.33838e-05 7.50314e-05 0.000126597 0.00020859 0.000335763 0.000528157 0.000812125 0.0012211 0.00179585 0.00258382 0.0036372 0.00500943 0.00674978 0.00889615 0.0114661 0.0144467 0.0177845 0.0213759 0.0250617 0.0286249 0.0317956 0.0342634 0.0356966 0.0357696 0.0341943 0.0307547 0.0253392 0.0179672 0.00880554 -0.00182804 -0.0134774 -0.0255751 -0.0374829 -0.0485423 -0.0581283 -0.0657024 -0.0708567 -0.073347 -0.0731084 -0.0702542 -0.0650582 -0.0579239 -0.0493435 -0.0398527 -0.0299867 -0.0202402 -0.0110369 -0.00270897 0.00451245 0.0104973 0.0152076 0.0186828 0.0210215 0.0223629 0.0228683 0.0227053 0.022036 0.0210077 0.0197473 0.0183597 0.0169265 0.0155089 0.0141492 0.0128744 0.0116994 0.0106302 0.00966621 0.00880258 0.00803192 0.00734584 0.00673541 0.00619172 0.00570647 0.00527213 0.00488225 0.00453113 0.00421374 0.00392578 0.00366358 0.00342411 0.00320456 0.00300274 0.00281661 0.00264452 0.00248511 0.00233708 0.00219942 0.00207116 0.0019513 0.00183892 0.00173352 0.0016347 0.00154191 0.00145472 0.00137274 0.00129559 0.00122288 0.00115421 0.00108933 0.00102805 0.000970161 0.000915359 0.000863562 0.000814562 0.00076818 0.000724222 0.000682546 0.00064301 0.000605552 0.000570093 0.000536463 0.000504714 0.000474623 0.000446099 0.000419014 0.000393268 0.000368817 0.000345681 0.000323756 0.000302964 0.000283187 0.000264413 0.000246597 0.000229742 0.000213771 0.000198498 0.000184006 0.000170263 0.000157224 0.000144799 0.000133005 0.000121767 0.00011109 0.000100976 9.13357e-05 8.22315e-05 7.35636e-05 6.52834e-05 5.74319e-05 4.99727e-05 4.28731e-05 3.61144e-05 2.96936e-05 2.35422e-05 1.7655e-05 1.20018e-05 6.62143e-06 1.54503e-06 -3.30062e-06 -7.8495e-06 -1.21557e-05 -1.62663e-05 -2.02282e-05 -2.40036e-05 -2.75502e-05 -3.08971e-05 -3.4103e-05 -3.71817e-05 -4.02064e-05 -4.30331e-05 -4.56685e-05 -4.81319e-05 -5.04762e-05 -5.27364e-05 -5.4928e-05 -5.70561e-05 -5.90336e-05 -6.07994e-05 -6.24528e-05 -6.4095e-05 -6.57303e-05 -6.73139e-05 -6.88076e-05 -7.02089e-05 -7.15024e-05 -7.27574e-05 -7.39668e-05 -7.51474e-05 -7.62455e-05 -7.72801e-05 -7.81837e-05 -7.90473e-05 -7.98882e-05 -8.065e-05 -8.1357e-05 -8.21059e-05 -8.27713e-05 -8.33427e-05 -8.39462e-05 -8.45158e-05 -8.49856e-05 -8.54606e-05 -8.59155e-05 -8.63379e-05 -8.68146e-05 -8.72559e-05 -8.77009e-05 -8.81218e-05 -8.84698e-05 -8.87837e-05 -8.904e-05 -8.92549e-05 -8.95446e-05 -8.97781e-05 -8.99677e-05 -9.00659e-05 -9.02106e-05 -9.04488e-05 -9.06841e-05 -9.08497e-05 -9.09449e-05 -9.10645e-05 -9.11667e-05 -9.12552e-05 -9.13503e-05 -9.13726e-05 -9.13797e-05 -9.13925e-05 -9.14469e-05 -9.15345e-05 -9.1589e-05 -9.1614e-05 -9.16222e-05 -9.17106e-05 -9.18006e-05 -9.18109e-05 -9.17958e-05 -9.17636e-05 -9.18208e-05 -9.1874e-05 -9.19079e-05 -9.18903e-05 -9.18461e-05 -9.18119e-05 -9.17809e-05 -9.17383e-05 -9.17062e-05 -9.16722e-05 -9.16295e-05 -9.16197e-05 -9.16381e-05 -9.16876e-05 -9.16858e-05 -9.16018e-05 -9.14583e-05 -9.13642e-05 -9.13238e-05 -9.13432e-05 -9.1364e-05 -9.1368e-05 -9.14064e-05 -9.1433e-05 -9.14235e-05 -9.14692e-05 -9.14446e-05 -9.13839e-05 -9.13708e-05 -9.13786e-05 -9.14037e-05 -9.14262e-05 -9.13256e-05 -9.122e-05 -9.11746e-05 -9.11375e-05 -9.1161e-05 -9.11626e-05 -9.12063e-05 -9.12575e-05 -9.12638e-05 -9.12606e-05 -9.12638e-05 -9.12575e-05 -9.12063e-05 -9.11626e-05 -9.1161e-05 -9.11375e-05 -9.11746e-05 -9.122e-05 -9.13256e-05 -9.14262e-05 -9.14037e-05 -9.13786e-05 -9.13708e-05 -9.13839e-05 -9.14446e-05 -9.14692e-05 -9.14235e-05 -9.1433e-05 -9.14064e-05 -9.1368e-05 -9.1364e-05 -9.13432e-05 -9.13238e-05 -9.13642e-05 -9.14583e-05 -9.16018e-05 -9.16858e-05 -9.16876e-05 -9.16381e-05 -9.16197e-05 -9.16295e-05 -9.16722e-05 -9.17062e-05 -9.17383e-05 -9.17809e-05 -9.18119e-05 -9.18461e-05 -9.18903e-05 -9.19079e-05 -9.1874e-05 -9.18208e-05 -9.17636e-05 -9.17958e-05 -9.18109e-05 -9.18006e-05 -9.17106e-05 -9.16222e-05 -9.1614e-05 -9.1589e-05 -9.15345e-05 -9.14469e-05 -9.13925e-05 -9.13797e-05 -9.13726e-05 -9.13503e-05 -9.12552e-05 -9.11667e-05 -9.10645e-05 -9.09449e-05 -9.08497e-05 -9.06841e-05 -9.04488e-05 -9.02106e-05 -9.00659e-05 -8.99677e-05 -8.97781e-05 -8.95446e-05 -8.92549e-05 -8.904e-05 -8.87837e-05 -8.84698e-05 -8.81218e-05 -8.77009e-05 -8.72559e-05 -8.68146e-05 -8.63379e-05 -8.59155e-05 -8.54606e-05 -8.49856e-05 -8.45158e-05 -8.39462e-05 -8.33427e-05 -8.27713e-05 -8.21059e-05 -8.1357e-05 -8.065e-05 -7.98882e-05 -7.90473e-05 -7.81837e-05 -7.72801e-05 -7.62455e-05 -7.51474e-05 -7.39668e-05 -7.27574e-05 -7.15024e-05 -7.02089e-05 -6.88076e-05 -6.73139e-05 -6.57303e-05 -6.4095e-05 -6.24528e-05 -6.07994e-05 -5.90336e-05 -5.70561e-05 -5.4928e-05 -5.27364e-05 -5.04762e-05 -4.81319e-05 -4.56685e-05 -4.30331e-05 -4.02064e-05 -3.71817e-05 -3.4103e-05 -3.08971e-05 -2.75502e-05 -2.40036e-05 -2.02282e-05 -1.62663e-05 -1.21557e-05 -7.8495e-06 -3.30062e-06 1.54503e-06 6.62143e-06 1.20018e-05 1.7655e-05 2.35422e-05 2.96936e-05 3.61144e-05 4.28731e-05 4.99727e-05 5.74319e-05 6.52834e-05 7.35636e-05 8.22315e-05 9.13357e-05 0.000100976 0.00011109 0.000121767 0.000133005 0.000144799 0.000157224 0.000170263 0.000184006 0.000198498 0.000213771 0.000229742 0.000246597 0.000264413 0.000283187 0.000302964 0.000323756 0.000345681 0.000368817 0.000393268 0.000419014 0.000446099 0.000474623 0.000504714 0.000536463 0.000570093 0.000605552 0.00064301 0.000682546 0.000724222 0.00076818 0.000814562 0.000863562 0.000915359 0.000970161 0.00102805 0.00108933 0.00115421 0.00122288 0.00129559 0.00137274 0.00145472 0.00154191 0.0016347 0.00173352 0.00183892 0.0019513 0.00207116 0.00219942 0.00233708 0.00248511 0.00264452 0.00281661 0.00300274 0.00320456 0.00342411 0.00366358 0.00392578 0.00421374 0.00453113 0.00488225 0.00527213 0.00570647 0.00619172 0.00673541 0.00734584 0.00803192 0.00880258 0.00966621 0.0106302 0.0116994 0.0128744 0.0141492 0.0155089 0.0169265 0.0183597 0.0197473 0.0210077 0.0220361 0.0227053 0.0228683 0.0223629 0.0210215 0.0186829 0.0152077 0.0104974 0.00451252 -0.00270892 -0.0110368 -0.0202401 -0.0299866 -0.0398526 -0.0493433 -0.0579238 -0.0650582 -0.0702542 -0.0731084 -0.073347 -0.0708566 -0.0657024 -0.0581284 -0.0485424 -0.037483 -0.0255752 -0.0134775 -0.00182816 0.00880542 0.017967 0.0253391 0.0307546 0.0341942 0.0357695 0.0356966 0.0342634 0.0317957 0.0286249 0.0250617 0.0213759 0.0177845 0.0144467 0.0114661 0.00889615 0.00674977 0.00500943 0.0036372 0.00258382 0.00179585 0.0012211 0.000812126 0.000528158 0.000335763 0.00020859 0.000126597 7.50319e-05 4.33841e-05 2.44078e-05 1.32784e-05 6.89495e-06 3.32631e-06 1.42187e-06 4.65553e-07 3.97113e-08 -1.05966e-07 -1.20316e-07 -8.73607e-08 -4.89961e-08 -2.11554e-08 -5.88236e-09 3.26988e-10 1.72457e-09 1.32539e-09 6.54057e-10 2.12953e-10 2.31468e-11 -2.4617e-11 -2.09325e-11 -9.44869e-12 -2.53816e-12 -8.20459e-14 3.24433e-13 1.99745e-13 7.24838e-14 1.76919e-14 0 0 
0 0 1.19294e-14 6.51089e-14 2.04282e-13 4.36236e-13 3.15211e-13 -1.80488e-12 -9.26366e-12 -2.46333e-11 -3.87711e-11 -6.36273e-12 1.83801e-10 6.9904e-10 1.6131e-09 2.48472e-09 1.61842e-09 -4.73044e-09 -2.24018e-08 -5.72437e-08 -1.09291e-07 -1.62094e-07 -1.67064e-07 -2.30712e-08 4.50632e-07 1.55631e-06 3.79307e-06 7.99336e-06 1.55532e-05 2.87949e-05 5.14895e-05 8.95561e-05 0.000151946 0.000251707 0.00040722 0.000643543 0.000993726 0.00149984 0.00221331 0.00319414 0.00450839 0.00622359 0.00840185 0.0110903 0.0143097 0.018041 0.0222125 0.026688 0.031259 0.0356431 0.0394914 0.0424045 0.0439596 0.0437465 0.0414093 0.0366912 0.029476 0.0198212 0.00797755 -0.00561125 -0.0203276 -0.0354198 -0.0500585 -0.063404 -0.0746786 -0.0832333 -0.0886031 -0.0905443 -0.0890489 -0.0843366 -0.0768249 -0.0670832 -0.0557759 -0.0436017 -0.0312369 -0.0192857 -0.00824563 0.00151395 0.00975843 0.0163821 0.0213921 0.0248859 0.0270259 0.0280136 0.0280677 0.0274044 0.026224 0.0247022 0.022985 0.0211876 0.0193962 0.0176712 0.016052 0.0145601 0.0132042 0.0119843 0.0108945 0.009925 0.00906398 0.00829999 0.00762152 0.00701762 0.00647834 0.0059949 0.00555992 0.00516725 0.00481154 0.00448801 0.00419263 0.00392205 0.00367348 0.00344437 0.00323258 0.00303621 0.00285411 0.0026848 0.00252702 0.0023799 0.00224235 0.00211311 0.0019916 0.00187766 0.00177078 0.00167024 0.00157558 0.00148643 0.00140248 0.00132323 0.00124825 0.00117735 0.00111046 0.00104709 0.000987037 0.000930486 0.000876834 0.000825986 0.000777746 0.000732043 0.00068873 0.000647677 0.000608763 0.000572129 0.000537564 0.00050469 0.000473427 0.000443689 0.000415553 0.000388893 0.000363617 0.000339612 0.000316894 0.000295331 0.000274904 0.00025566 0.000237246 0.000219739 0.000203002 0.000187194 0.000172218 0.000158113 0.000144639 0.000131826 0.000119491 0.00010787 9.67497e-05 8.62551e-05 7.63368e-05 6.69672e-05 5.81209e-05 4.97119e-05 4.16446e-05 3.38494e-05 2.64143e-05 1.94384e-05 1.26865e-05 6.20278e-06 7.07884e-08 -5.74678e-06 -1.1207e-05 -1.64443e-05 -2.12916e-05 -2.60695e-05 -3.06054e-05 -3.49803e-05 -3.88981e-05 -4.25595e-05 -4.62022e-05 -4.97321e-05 -5.32885e-05 -5.67324e-05 -5.96406e-05 -6.2379e-05 -6.49523e-05 -6.7437e-05 -6.96653e-05 -7.19638e-05 -7.43376e-05 -7.66228e-05 -7.84385e-05 -8.01473e-05 -8.18588e-05 -8.37005e-05 -8.55684e-05 -8.71955e-05 -8.86661e-05 -9.00053e-05 -9.12704e-05 -9.24452e-05 -9.36497e-05 -9.47248e-05 -9.56772e-05 -9.6647e-05 -9.75954e-05 -9.84343e-05 -9.92151e-05 -0.000100005 -0.000100817 -0.000101518 -0.000102122 -0.000102683 -0.000103186 -0.000103646 -0.000104165 -0.000104677 -0.000105137 -0.000105604 -0.000105972 -0.000106373 -0.000106765 -0.000107014 -0.000107364 -0.000107563 -0.000107802 -0.000108018 -0.000108185 -0.000108332 -0.000108614 -0.000108908 -0.000109123 -0.000109214 -0.000109331 -0.000109358 -0.000109452 -0.000109484 -0.000109474 -0.000109645 -0.000109729 -0.000109735 -0.000109699 -0.000109682 -0.000109789 -0.000109833 -0.00010975 -0.000109747 -0.000109849 -0.000109922 -0.000109837 -0.00010978 -0.000109656 -0.000109669 -0.000109535 -0.000109529 -0.000109588 -0.000109617 -0.00010951 -0.000109554 -0.000109526 -0.000109552 -0.000109319 -0.000109204 -0.000109245 -0.000109175 -0.000109152 -0.00010914 -0.000109024 -0.000108852 -0.000108784 -0.00010873 -0.000108711 -0.000108697 -0.000108794 -0.000108816 -0.00010876 -0.000108741 -0.0001089 -0.000108851 -0.000108676 -0.000108698 -0.000108763 -0.000108882 -0.000108914 -0.000108728 -0.000108587 -0.000108571 -0.000108379 -0.000108355 -0.000108392 -0.000108483 -0.000108548 -0.000108572 -0.00010864 -0.000108572 -0.000108548 -0.000108483 -0.000108392 -0.000108355 -0.000108379 -0.000108571 -0.000108587 -0.000108728 -0.000108914 -0.000108882 -0.000108763 -0.000108698 -0.000108676 -0.000108851 -0.0001089 -0.000108741 -0.00010876 -0.000108816 -0.000108794 -0.000108697 -0.000108711 -0.00010873 -0.000108784 -0.000108852 -0.000109024 -0.00010914 -0.000109152 -0.000109175 -0.000109245 -0.000109204 -0.000109319 -0.000109552 -0.000109526 -0.000109554 -0.00010951 -0.000109617 -0.000109588 -0.000109529 -0.000109535 -0.000109669 -0.000109656 -0.00010978 -0.000109837 -0.000109922 -0.000109849 -0.000109747 -0.00010975 -0.000109833 -0.000109789 -0.000109682 -0.000109699 -0.000109735 -0.000109729 -0.000109645 -0.000109474 -0.000109484 -0.000109452 -0.000109358 -0.000109331 -0.000109214 -0.000109123 -0.000108908 -0.000108614 -0.000108332 -0.000108185 -0.000108018 -0.000107802 -0.000107563 -0.000107364 -0.000107014 -0.000106765 -0.000106373 -0.000105972 -0.000105604 -0.000105137 -0.000104677 -0.000104165 -0.000103646 -0.000103186 -0.000102683 -0.000102122 -0.000101518 -0.000100817 -0.000100005 -9.92151e-05 -9.84343e-05 -9.75954e-05 -9.6647e-05 -9.56772e-05 -9.47248e-05 -9.36497e-05 -9.24452e-05 -9.12704e-05 -9.00053e-05 -8.86661e-05 -8.71955e-05 -8.55684e-05 -8.37005e-05 -8.18588e-05 -8.01473e-05 -7.84385e-05 -7.66228e-05 -7.43376e-05 -7.19638e-05 -6.96653e-05 -6.7437e-05 -6.49523e-05 -6.2379e-05 -5.96406e-05 -5.67324e-05 -5.32885e-05 -4.97321e-05 -4.62022e-05 -4.25595e-05 -3.88981e-05 -3.49803e-05 -3.06054e-05 -2.60695e-05 -2.12916e-05 -1.64443e-05 -1.1207e-05 -5.74678e-06 7.07884e-08 6.20278e-06 1.26865e-05 1.94384e-05 2.64143e-05 3.38494e-05 4.16446e-05 4.97119e-05 5.81209e-05 6.69672e-05 7.63368e-05 8.62551e-05 9.67497e-05 0.00010787 0.000119491 0.000131826 0.000144639 0.000158113 0.000172218 0.000187194 0.000203002 0.000219739 0.000237246 0.00025566 0.000274904 0.000295331 0.000316894 0.000339612 0.000363617 0.000388893 0.000415553 0.000443689 0.000473427 0.00050469 0.000537564 0.000572129 0.000608763 0.000647677 0.00068873 0.000732043 0.000777746 0.000825986 0.000876834 0.000930486 0.000987037 0.00104709 0.00111046 0.00117735 0.00124825 0.00132323 0.00140248 0.00148643 0.00157558 0.00167024 0.00177078 0.00187766 0.0019916 0.00211311 0.00224235 0.0023799 0.00252702 0.0026848 0.00285411 0.00303621 0.00323258 0.00344437 0.00367348 0.00392205 0.00419263 0.00448801 0.00481154 0.00516725 0.00555992 0.0059949 0.00647834 0.00701762 0.00762152 0.00829999 0.00906398 0.009925 0.0108945 0.0119843 0.0132042 0.0145601 0.016052 0.0176712 0.0193962 0.0211876 0.022985 0.0247022 0.026224 0.0274043 0.0280677 0.0280136 0.027026 0.024886 0.0213922 0.0163822 0.00975841 0.00151397 -0.00824561 -0.0192856 -0.0312368 -0.0436016 -0.0557757 -0.0670832 -0.0768247 -0.0843365 -0.0890487 -0.0905443 -0.0886031 -0.0832334 -0.0746788 -0.0634042 -0.0500586 -0.0354199 -0.0203277 -0.00561135 0.0079774 0.0198211 0.0294758 0.0366911 0.0414093 0.0437466 0.0439597 0.0424045 0.0394914 0.0356431 0.031259 0.026688 0.0222125 0.018041 0.0143097 0.0110903 0.00840184 0.00622359 0.00450838 0.00319414 0.00221331 0.00149984 0.000993727 0.000643543 0.00040722 0.000251707 0.000151946 8.95565e-05 5.14886e-05 2.87911e-05 1.55433e-05 7.9721e-06 3.78109e-06 1.55149e-06 4.49319e-07 -2.29383e-08 -1.66522e-07 -1.6159e-07 -1.08959e-07 -5.70728e-08 -2.23359e-08 -4.71683e-09 1.61359e-09 2.4775e-09 1.60846e-09 6.97043e-10 1.83279e-10 -6.34497e-12 -3.86623e-11 -2.45645e-11 -9.23739e-12 -1.79676e-12 3.23196e-13 4.4805e-13 1.99823e-13 6.37176e-14 0 0 