<?xml version="1.0"?>
<VTKFile type="ImageData" version="0.1" byte_order="LittleEndian">
<ImageData WholeExtent="0 599 0 599 0 0" Origin="0 0 0" Spacing="5 5 0">
<Piece Extent="0 599 0 599 0 0">
<PointData Scalars="Amplitude">
<DataArray type="Float32" Name="Amplitude" format="ascii">
0 0 0 0 0 0 0 0 0 0 0 0 0 0 0 0 0 0 0 0 0 0 0 0 0 0 0 0 0 0 0 0 0 0 0 0 0 0 0 0 0 0 0 0 0 0 0 0 0 0 0 0 0 0 0 0 0 0 0 0 0 0 0 0 0 0 0 0 0 0 0 0 0 0 0 0 0 0 0 0 0 0 0 0 0 0 0 0 0 0 0 0 0 0 0 0 0 0 0 0 0 0 0 0 0 0 0 0 0 0 0 0 0 0 0 0 0 0 0 0 0 0 0 0 0 0 0 0 0 0 0 0 0 0 0 0 0 0 0 0 0 0 0 0 0 0 0 0 0 0 0 0 0 0 0 0 0 0 0 0 0 0 0 0 0 0 0 0 0 0 0 0 0 0 0 0 0 0 0 0 0 0 0 0 0 0 0 0 0 0 0 0 0 0 0 0 0 0 0 0 0 0 0 0 0 0 0 0 0 0 0 0 0 0 0 0 0 0 0 0 0 0 0 0 0 0 0 0 0 0 0 0 0 0 0 0 0 0 0 0 0 0 0 0 0 0 0 0 0 0 0 0 0 0 0 0 0 0 0 0 0 0 0 0 0 0 0 0 0 0 0 0 0 0 0 0 0 0 0 0 0 0 0 0 0 0 0 0 0 0 0 0 0 0 0 0 0 0 0 0 0 0 0 0 0 0 0 0 0 0 0 0 0 0 0 0 0 0 0 0 0 0 0 0 0 0 0 0 0 0 0 0 0 0 0 0 0 0 0 0 0 0 0 0 0 0 0 0 0 0 0 0 0 0 0 0 0 0 0 0 0 0 0 0 0 0 0 0 0 0 0 0 0 0 0 0 0 0 0 0 0 0 0 0 0 0 0 0 0 0 0 0 0 0 0 0 0 0 0 0 0 0 0 0 0 0 0 0 0 0 0 0 0 0 0 0 0 0 0 0 0 0 0 0 0 0 0 0 0 0 0 0 0 0 0 0 0 0 0 0 0 0 0 0 0 0 0 0 0 0 0 0 0 0 0 0 0 0 0 0 0 0 0 0 0 0 0 0 0 0 0 0 0 0 0 0 0 0 0 0 0 0 0 0 0 0 0 0 0 0 0 0 0 0 0 0 0 0 0 0 0 0 0 0 0 0 0 0 0 0 0 0 0 0 0 0 0 0 0 0 0 0 0 0 0 0 0 0 0 0 0 0 0 0 0 0 0 0 0 0 0 0 0 0 0 0 0 0 0 0 0 0 0 0 0 0 0 0 0 0 0 0 0 0 0 0 0 0 0 0 0 0 0 0 0 0 0 0 0 0 0 0 0 0 0 0 0 0 0 0 0 0 0 0 0 0 0 0 0 0 
0 0 0 0 0 0 0 0 0 0 0 0 0 0 0 0 0 0 0 0 0 0 0 0 0 0 0 0 0 0 0 0 0 0 0 0 0 0 0 0 0 0 0 0 0 0 0 0 0 0 0 0 0 0 0 0 0 0 0 0 0 0 0 0 0 0 0 0 0 0 0 0 0 0 0 0 0 0 0 0 0 0 0 0 0 0 0 0 0 0 0 0 0 0 0 0 0 0 0 0 0 0 0 0 0 0 0 0 0 0 0 0 0 0 0 0 0 0 0 0 0 0 0 0 0 0 0 0 0 0 0 0 0 0 0 0 0 0 0 0 0 0 0 0 0 0 0 0 0 0 0 0 0 0 0 0 0 0 0 0 0 0 0 0 0 0 0 0 0 0 0 0 0 0 0 0 0 0 0 0 0 0 0 0 0 0 0 0 0 0 0 0 0 0 0 0 0 0 0 0 0 0 0 0 0 0 0 0 0 0 0 0 0 0 0 0 0 0 0 0 0 0 0 0 0 0 0 0 0 0 0 0 0 0 0 0 0 0 0 0 0 0 0 0 0 0 0 0 0 0 0 0 0 0 0 0 0 0 0 0 0 0 0 0 0 0 0 0 0 0 0 0 0 0 0 0 0 0 0 0 0 0 0 0 0 0 0 0 0 0 0 0 0 0 0 0 0 0 0 0 0 0 0 0 0 0 0 0 0 0 0 0 0 0 0 0 0 0 0 0 0 0 0 0 0 0 0 0 0 0 0 0 0 0 0 0 0 0 0 0 0 0 0 0 0 0 0 0 0 0 0 0 0 0 0 0 0 0 0 0 0 0 0 0 0 0 0 0 0 0 0 0 0 0 0 0 0 0 0 0 0 0 0 0 0 0 0 0 0 0 0 0 0 0 0 0 0 0 0 0 0 0 0 0 0 0 0 0 0 0 0 0 0 0 0 0 0 0 0 0 0 0 0 0 0 0 0 0 0 0 0 0 0 0 0 0 0 0 0 0 0 0 0 0 0 0 0 0 0 0 0 0 0 0 0 0 0 0 0 0 0 0 0 0 0 0 0 0 0 0 0 0 0 0 0 0 0 0 0 0 0 0 0 0 0 0 0 0 0 0 0 0 0 0 0 0 0 0 0 0 0 0 0 0 0 0 0 0 0 0 0 0 0 0 0 0 0 0 0 0 0 0 0 0 0 0 0 0 0 0 0 0 0 0 0 0 0 0 0 0 0 0 0 0 0 0 0 0 0 0 0 0 0 0 0 0 0 0 0 0 0 0 0 0 0 0 0 0 0 0 0 0 0 0 0 0 0 0 0 0 0 0 0 0 0 0 0 0 0 0 0 0 0 0 0 0 0 0 0 0 
0 0 1.8686e-10 7.97371e-09 3.48612e-08 1.22279e-07 3.51122e-07 8.91177e-07 2.08698e-06 4.61145e-06 9.72023e-06 1.96376e-05 3.80947e-05 7.10188e-05 0.000127343 0.000219852 0.000365904 0.000587794 0.000912446 0.00137013 0.00199198 0.00280627 0.0038337 0.00508202 0.00654082 0.00817755 0.00993647 0.0117337 0.0134512 0.0149407 0.0160318 0.0165446 0.0163068 0.015174 0.0130497 0.00990533 0.0057928 0.000851524 -0.00469519 -0.0105533 -0.0163807 -0.0218167 -0.0265153 -0.0301784 -0.0325834 -0.0336039 -0.0332187 -0.0315097 -0.0286493 -0.0248789 -0.0204829 -0.0157593 -0.0109933 -0.00643525 -0.00228517 0.00131566 0.00428572 0.00659911 0.00827643 0.00937311 0.0099677 0.0101502 0.0100127 0.00964213 0.00911511 0.00849573 0.00783454 0.0071693 0.00652613 0.00592177 0.00536539 0.00486063 0.00440746 0.00400344 0.00364457 0.00332626 0.00304388 0.00279298 0.00256941 0.00236938 0.00218969 0.00202777 0.00188137 0.00174826 0.00162672 0.00151546 0.00141337 0.00131936 0.0012326 0.00115242 0.00107818 0.00100916 0.000944777 0.000884658 0.000828595 0.000776252 0.000727307 0.0006815 0.000638581 0.000598342 0.000560499 0.000524956 0.000491525 0.000460139 0.000430753 0.000403172 0.000377199 0.000352707 0.000329592 0.000307845 0.000287407 0.000268179 0.000250044 0.000232926 0.000216792 0.000201607 0.000187276 0.000173858 0.000161241 0.000149432 0.000138307 0.000127741 0.000117682 0.000108198 9.92811e-05 9.09199e-05 8.31137e-05 7.57984e-05 6.88719e-05 6.23325e-05 5.61142e-05 5.01748e-05 4.45192e-05 3.91972e-05 3.41866e-05 2.95154e-05 2.51527e-05 2.1111e-05 1.72504e-05 1.3534e-05 9.96641e-06 6.58525e-06 3.4655e-06 5.70534e-07 -2.16109e-06 -4.70691e-06 -7.18721e-06 -9.54411e-06 -1.16878e-05 -1.37449e-05 -1.57579e-05 -1.76399e-05 -1.94311e-05 -2.11587e-05 -2.27394e-05 -2.41848e-05 -2.55803e-05 -2.6871e-05 -2.81149e-05 -2.92679e-05 -3.03254e-05 -3.1312e-05 -3.21841e-05 -3.29625e-05 -3.38002e-05 -3.4586e-05 -3.5371e-05 -3.61e-05 -3.67981e-05 -3.74726e-05 -3.79889e-05 -3.83889e-05 -3.8793e-05 -3.91852e-05 -3.96035e-05 -4.00533e-05 -4.04899e-05 -4.08255e-05 -4.10854e-05 -4.12754e-05 -4.14377e-05 -4.16947e-05 -4.19289e-05 -4.20807e-05 -4.22169e-05 -4.23595e-05 -4.24921e-05 -4.26066e-05 -4.27794e-05 -4.29359e-05 -4.30029e-05 -4.30032e-05 -4.29739e-05 -4.29824e-05 -4.30039e-05 -4.30352e-05 -4.30309e-05 -4.30156e-05 -4.30475e-05 -4.30528e-05 -4.29407e-05 -4.28556e-05 -4.27783e-05 -4.26557e-05 -4.25967e-05 -4.26107e-05 -4.26078e-05 -4.25488e-05 -4.24221e-05 -4.23591e-05 -4.22215e-05 -4.20712e-05 -4.19126e-05 -4.1784e-05 -4.17319e-05 -4.17112e-05 -4.16694e-05 -4.15985e-05 -4.14837e-05 -4.13404e-05 -4.12046e-05 -4.10839e-05 -4.09356e-05 -4.08281e-05 -4.07046e-05 -4.06314e-05 -4.0561e-05 -4.04349e-05 -4.03043e-05 -4.01609e-05 -4.00006e-05 -3.98228e-05 -3.9679e-05 -3.95315e-05 -3.9416e-05 -3.93314e-05 -3.93143e-05 -3.92439e-05 -3.91313e-05 -3.90091e-05 -3.88771e-05 -3.88046e-05 -3.87608e-05 -3.86414e-05 -3.84629e-05 -3.83381e-05 -3.82088e-05 -3.81012e-05 -3.79558e-05 -3.78241e-05 -3.77676e-05 -3.7742e-05 -3.77151e-05 -3.7668e-05 -3.7619e-05 -3.75474e-05 -3.74566e-05 -3.73887e-05 -3.7326e-05 -3.7218e-05 -3.71089e-05 -3.69996e-05 -3.68979e-05 -3.67994e-05 -3.6697e-05 -3.66052e-05 -3.65223e-05 -3.64866e-05 -3.64124e-05 -3.63973e-05 -3.63869e-05 -3.63648e-05 -3.63743e-05 -3.63904e-05 -3.63857e-05 -3.63516e-05 -3.63186e-05 -3.62351e-05 -3.61168e-05 -3.6016e-05 -3.58688e-05 -3.57553e-05 -3.56645e-05 -3.56826e-05 -3.57236e-05 -3.56426e-05 -3.55112e-05 -3.54291e-05 -3.5393e-05 -3.53563e-05 -3.52953e-05 -3.52868e-05 -3.532e-05 -3.53239e-05 -3.52678e-05 -3.52612e-05 -3.52934e-05 -3.53531e-05 -3.54002e-05 -3.54296e-05 -3.54685e-05 -3.54296e-05 -3.54002e-05 -3.53531e-05 -3.52934e-05 -3.52612e-05 -3.52678e-05 -3.53239e-05 -3.532e-05 -3.52868e-05 -3.52953e-05 -3.53563e-05 -3.5393e-05 -3.54291e-05 -3.55112e-05 -3.56426e-05 -3.57236e-05 -3.56826e-05 -3.56645e-05 -3.57553e-05 -3.58688e-05 -3.6016e-05 -3.61168e-05 -3.62351e-05 -3.63186e-05 -3.63516e-05 -3.63857e-05 -3.63904e-05 -3.63743e-05 -3.63648e-05 -3.63869e-05 -3.63973e-05 -3.64124e-05 -3.64866e-05 -3.65223e-05 -3.66052e-05 -3.6697e-05 -3.67994e-05 -3.68979e-05 -3.69996e-05 -3.71089e-05 -3.7218e-05 -3.7326e-05 -3.73887e-05 -3.74566e-05 -3.75474e-05 -3.7619e-05 -3.7668e-05 -3.77151e-05 -3.7742e-05 -3.77676e-05 -3.78241e-05 -3.79558e-05 -3.81012e-05 -3.82088e-05 -3.83381e-05 -3.84629e-05 -3.86414e-05 -3.87608e-05 -3.88046e-05 -3.88771e-05 -3.90091e-05 -3.91313e-05 -3.92439e-05 -3.93143e-05 -3.93314e-05 -3.9416e-05 -3.95315e-05 -3.9679e-05 -3.98228e-05 -4.00006e-05 -4.01609e-05 -4.03043e-05 -4.04349e-05 -4.0561e-05 -4.06314e-05 -4.07046e-05 -4.08281e-05 -4.09356e-05 -4.10839e-05 -4.12046e-05 -4.13404e-05 -4.14837e-05 -4.15985e-05 -4.16694e-05 -4.17112e-05 -4.17319e-05 -4.1784e-05 -4.19126e-05 -4.20712e-05 -4.22215e-05 -4.23591e-05 -4.24221e-05 -4.25488e-05 -4.26078e-05 -4.26107e-05 -4.25967e-05 -4.26557e-05 -4.27783e-05 -4.28556e-05 -4.29407e-05 -4.30528e-05 -4.30475e-05 -4.30156e-05 -4.30309e-05 -4.30352e-05 -4.30039e-05 -4.29824e-05 -4.29739e-05 -4.30032e-05 -4.30029e-05 -4.29359e-05 -4.27794e-05 -4.26066e-05 -4.24921e-05 -4.23595e-05 -4.22169e-05 -4.20807e-05 -4.19289e-05 -4.16947e-05 -4.14377e-05 -4.12754e-05 -4.10854e-05 -4.08255e-05 -4.04899e-05 -4.00533e-05 -3.96035e-05 -3.91852e-05 -3.8793e-05 -3.83889e-05 -3.79889e-05 -3.74726e-05 -3.67981e-05 -3.61e-05 -3.5371e-05 -3.4586e-05 -3.38002e-05 -3.29625e-05 -3.21841e-05 -3.1312e-05 -3.03254e-05 -2.92679e-05 -2.81149e-05 -2.6871e-05 -2.55803e-05 -2.41848e-05 -2.27394e-05 -2.11587e-05 -1.94311e-05 -1.76399e-05 -1.57579e-05 -1.37449e-05 -1.16878e-05 -9.54411e-06 -7.18721e-06 -4.70691e-06 -2.16109e-06 5.70534e-07 3.4655e-06 6.58525e-06 9.96641e-06 1.3534e-05 1.72504e-05 2.1111e-05 2.51527e-05 2.95154e-05 3.41866e-05 3.91972e-05 4.45192e-05 5.01748e-05 5.61142e-05 6.23325e-05 6.88719e-05 7.57984e-05 8.31137e-05 9.09199e-05 9.92812e-05 0.000108198 0.000117682 0.000127741 0.000138307 0.000149432 0.000161241 0.000173858 0.000187276 0.000201607 0.000216792 0.000232926 0.000250044 0.000268179 0.000287407 0.000307844 0.000329591 0.00035271 0.000377205 0.000403178 0.00043076 0.000460147 0.000491538 0.000524976 0.000560515 0.000598343 0.000638565 0.000681473 0.000727276 0.000776226 0.000828578 0.000884624 0.000944733 0.00100913 0.00107816 0.00115241 0.00123262 0.0013194 0.00141339 0.0015155 0.00162678 0.00174832 0.00188141 0.00202777 0.00218962 0.0023693 0.00256936 0.00279297 0.0030439 0.00332624 0.00364447 0.0040033 0.00440734 0.00486048 0.00536526 0.00592168 0.00652605 0.00716919 0.00783442 0.00849556 0.00911498 0.00964202 0.0100126 0.0101501 0.00996765 0.0093731 0.00827644 0.00659918 0.00428578 0.00131574 -0.00228505 -0.00643515 -0.0109932 -0.0157592 -0.0204828 -0.0248789 -0.0286493 -0.0315097 -0.0332187 -0.033604 -0.0325836 -0.0301786 -0.0265157 -0.0218171 -0.0163813 -0.0105541 -0.00469639 0.000849665 0.00579 0.00990115 0.0130437 0.0151654 0.0162951 0.0165287 0.0160106 0.0149125 0.0134126 0.0116779 0.00989272 0.00814614 0.00651751 0.00506472 0.00382105 0.00279723 0.00198568 0.00136587 0.000909647 0.00058601 0.000364804 0.000219197 0.000126966 7.08099e-05 3.79831e-05 1.95803e-05 9.69193e-06 4.59807e-06 2.08115e-06 8.89383e-07 3.52069e-07 1.25945e-07 4.14355e-08 9.71763e-09 0 0 
0 0 7.97371e-09 4.12244e-08 1.35017e-07 4.06305e-07 1.08164e-06 2.63236e-06 6.00301e-06 1.30043e-05 2.69384e-05 5.35154e-05 0.000102092 0.000187212 0.000330329 0.000561497 0.000920578 0.00145746 0.00223057 0.0033032 0.00473725 0.00658456 0.00887632 0.0116118 0.0147478 0.0181906 0.0217996 0.0253789 0.0286645 0.031339 0.0330516 0.0334481 0.0322066 0.0290788 0.023929 0.0167676 0.00777195 -0.00270955 -0.0141721 -0.0259885 -0.0374594 -0.0478754 -0.0565823 -0.0630424 -0.0668839 -0.0679322 -0.06622 -0.0619752 -0.0555895 -0.0475731 -0.0385006 -0.0289562 -0.0194844 -0.010551 -0.00251738 0.00437134 0.00998561 0.0143 0.0173738 0.0193287 0.0203258 0.0205441 0.0201633 0.0193505 0.0182523 0.0169897 0.0156577 0.0143265 0.0130447 0.0118428 0.0107375 0.00973519 0.00883514 0.00803205 0.00731794 0.00668385 0.00612061 0.00561936 0.00517203 0.00477149 0.0044116 0.0040869 0.00379268 0.00352499 0.00328063 0.00305688 0.00285138 0.00266206 0.00248729 0.00232555 0.00217554 0.00203603 0.00190611 0.00178499 0.00167192 0.00156621 0.00146724 0.00137452 0.00128771 0.00120633 0.00112993 0.00105818 0.000990792 0.000927512 0.000868017 0.00081198 0.000759308 0.000709807 0.000663249 0.000619382 0.00057796 0.000538954 0.000502226 0.00046765 0.000435186 0.000404708 0.000376003 0.000348945 0.000323448 0.000299492 0.000276795 0.000255303 0.00023507 0.000216046 0.00019814 0.000181357 0.000165568 0.000150602 0.000136466 0.000123105 0.00011045 9.8527e-05 8.72541e-05 7.6643e-05 6.66551e-05 5.72787e-05 4.84804e-05 4.0155e-05 3.22547e-05 2.47228e-05 1.7634e-05 1.09083e-05 4.59634e-06 -1.32198e-06 -6.89757e-06 -1.21708e-05 -1.71414e-05 -2.18042e-05 -2.62345e-05 -3.04422e-05 -3.44217e-05 -3.81617e-05 -4.16719e-05 -4.4965e-05 -4.80988e-05 -5.11815e-05 -5.40728e-05 -5.67062e-05 -5.91536e-05 -6.1418e-05 -6.35306e-05 -6.54662e-05 -6.72613e-05 -6.90131e-05 -7.07094e-05 -7.23429e-05 -7.38394e-05 -7.51981e-05 -7.64442e-05 -7.75514e-05 -7.85491e-05 -7.94792e-05 -8.04711e-05 -8.14169e-05 -8.23117e-05 -8.31236e-05 -8.38545e-05 -8.44771e-05 -8.5059e-05 -8.56009e-05 -8.60943e-05 -8.65269e-05 -8.68221e-05 -8.7095e-05 -8.74005e-05 -8.77153e-05 -8.79697e-05 -8.81825e-05 -8.8387e-05 -8.85602e-05 -8.86427e-05 -8.86412e-05 -8.86231e-05 -8.85751e-05 -8.85793e-05 -8.86041e-05 -8.8638e-05 -8.8678e-05 -8.86578e-05 -8.85841e-05 -8.84892e-05 -8.83443e-05 -8.81878e-05 -8.80941e-05 -8.79795e-05 -8.78399e-05 -8.77311e-05 -8.75275e-05 -8.7337e-05 -8.71632e-05 -8.69633e-05 -8.6724e-05 -8.64357e-05 -8.62608e-05 -8.61103e-05 -8.59659e-05 -8.58056e-05 -8.55862e-05 -8.53545e-05 -8.50549e-05 -8.47883e-05 -8.45005e-05 -8.42022e-05 -8.38712e-05 -8.36445e-05 -8.34919e-05 -8.32902e-05 -8.30672e-05 -8.282e-05 -8.25953e-05 -8.23803e-05 -8.21162e-05 -8.18571e-05 -8.1628e-05 -8.14122e-05 -8.1183e-05 -8.09495e-05 -8.06815e-05 -8.0414e-05 -8.02193e-05 -8.00448e-05 -7.98553e-05 -7.9593e-05 -7.93541e-05 -7.9058e-05 -7.88194e-05 -7.85846e-05 -7.84021e-05 -7.82198e-05 -7.8057e-05 -7.79177e-05 -7.77508e-05 -7.75903e-05 -7.74738e-05 -7.73721e-05 -7.72818e-05 -7.7148e-05 -7.69882e-05 -7.67732e-05 -7.6551e-05 -7.63361e-05 -7.6084e-05 -7.58403e-05 -7.56024e-05 -7.54252e-05 -7.52356e-05 -7.50695e-05 -7.49695e-05 -7.48862e-05 -7.47806e-05 -7.47491e-05 -7.46826e-05 -7.45922e-05 -7.4487e-05 -7.44201e-05 -7.42888e-05 -7.41804e-05 -7.40724e-05 -7.40251e-05 -7.39661e-05 -7.38538e-05 -7.36802e-05 -7.35206e-05 -7.34138e-05 -7.33251e-05 -7.32595e-05 -7.32037e-05 -7.31319e-05 -7.30506e-05 -7.29911e-05 -7.29119e-05 -7.28564e-05 -7.27964e-05 -7.27621e-05 -7.27194e-05 -7.26596e-05 -7.26364e-05 -7.26193e-05 -7.26415e-05 -7.26999e-05 -7.26873e-05 -7.26999e-05 -7.26415e-05 -7.26193e-05 -7.26364e-05 -7.26596e-05 -7.27194e-05 -7.27621e-05 -7.27964e-05 -7.28564e-05 -7.29119e-05 -7.29911e-05 -7.30506e-05 -7.31319e-05 -7.32037e-05 -7.32595e-05 -7.33251e-05 -7.34138e-05 -7.35206e-05 -7.36802e-05 -7.38538e-05 -7.39661e-05 -7.40251e-05 -7.40724e-05 -7.41804e-05 -7.42888e-05 -7.44201e-05 -7.4487e-05 -7.45922e-05 -7.46826e-05 -7.47491e-05 -7.47806e-05 -7.48862e-05 -7.49695e-05 -7.50695e-05 -7.52356e-05 -7.54252e-05 -7.56024e-05 -7.58403e-05 -7.6084e-05 -7.63361e-05 -7.6551e-05 -7.67732e-05 -7.69882e-05 -7.7148e-05 -7.72818e-05 -7.73721e-05 -7.74738e-05 -7.75903e-05 -7.77508e-05 -7.79177e-05 -7.8057e-05 -7.82198e-05 -7.84021e-05 -7.85846e-05 -7.88194e-05 -7.9058e-05 -7.93541e-05 -7.9593e-05 -7.98553e-05 -8.00448e-05 -8.02193e-05 -8.0414e-05 -8.06815e-05 -8.09495e-05 -8.1183e-05 -8.14122e-05 -8.1628e-05 -8.18571e-05 -8.21162e-05 -8.23803e-05 -8.25953e-05 -8.282e-05 -8.30672e-05 -8.32902e-05 -8.34919e-05 -8.36445e-05 -8.38712e-05 -8.42022e-05 -8.45005e-05 -8.47883e-05 -8.50549e-05 -8.53545e-05 -8.55862e-05 -8.58056e-05 -8.59659e-05 -8.61103e-05 -8.62608e-05 -8.64357e-05 -8.6724e-05 -8.69633e-05 -8.71632e-05 -8.7337e-05 -8.75275e-05 -8.77311e-05 -8.78399e-05 -8.79795e-05 -8.80941e-05 -8.81878e-05 -8.83443e-05 -8.84892e-05 -8.85841e-05 -8.86578e-05 -8.8678e-05 -8.8638e-05 -8.86041e-05 -8.85793e-05 -8.85751e-05 -8.86231e-05 -8.86412e-05 -8.86427e-05 -8.85602e-05 -8.8387e-05 -8.81825e-05 -8.79697e-05 -8.77153e-05 -8.74005e-05 -8.7095e-05 -8.68221e-05 -8.65269e-05 -8.60943e-05 -8.56009e-05 -8.5059e-05 -8.44771e-05 -8.38545e-05 -8.31236e-05 -8.23117e-05 -8.14169e-05 -8.04711e-05 -7.94792e-05 -7.85491e-05 -7.75514e-05 -7.64442e-05 -7.51981e-05 -7.38394e-05 -7.23429e-05 -7.07094e-05 -6.90131e-05 -6.72613e-05 -6.54662e-05 -6.35306e-05 -6.1418e-05 -5.91536e-05 -5.67062e-05 -5.40728e-05 -5.11815e-05 -4.80988e-05 -4.4965e-05 -4.16719e-05 -3.81617e-05 -3.44217e-05 -3.04422e-05 -2.62345e-05 -2.18042e-05 -1.71414e-05 -1.21708e-05 -6.89757e-06 -1.32198e-06 4.59634e-06 1.09083e-05 1.7634e-05 2.47228e-05 3.22547e-05 4.0155e-05 4.84804e-05 5.72787e-05 6.66551e-05 7.6643e-05 8.72541e-05 9.8527e-05 0.00011045 0.000123105 0.000136466 0.000150602 0.000165568 0.000181357 0.000198139 0.000216045 0.000235069 0.000255302 0.000276795 0.000299493 0.000323448 0.000348945 0.000376003 0.000404709 0.000435186 0.000467652 0.000502227 0.000538956 0.000577961 0.000619383 0.000663252 0.000709814 0.000759319 0.000811992 0.000868037 0.000927541 0.00099083 0.00105821 0.00112995 0.00120632 0.00128768 0.00137449 0.0014672 0.00156616 0.00167186 0.00178492 0.00190606 0.00203599 0.00217551 0.00232556 0.00248731 0.0026621 0.00285142 0.00305693 0.00328065 0.003525 0.00379265 0.00408685 0.00441154 0.00477147 0.00517202 0.00561932 0.00612054 0.00668372 0.00731778 0.00803185 0.00883498 0.00973508 0.0107374 0.0118427 0.0130445 0.0143263 0.0156575 0.0169895 0.0182522 0.0193505 0.0201632 0.020544 0.0203257 0.0193287 0.0173738 0.0143 0.00998567 0.00437137 -0.00251737 -0.010551 -0.0194844 -0.0289563 -0.0385008 -0.0475732 -0.0555895 -0.0619753 -0.0662201 -0.0679323 -0.0668841 -0.0630428 -0.056583 -0.0478764 -0.0374608 -0.0259906 -0.0141753 -0.00271427 0.00776502 0.0167575 0.0239146 0.0290588 0.0321795 0.0334119 0.0330042 0.0312775 0.0285856 0.0252465 0.0217066 0.0181235 0.0146961 0.0115726 0.00884717 0.00656342 0.00472233 0.00329296 0.00222374 0.00145305 0.000917818 0.000559826 0.000329354 0.000186662 0.000101794 5.33597e-05 2.68602e-05 1.29668e-05 5.98655e-06 2.62722e-06 1.084e-06 4.15703e-07 1.51511e-07 4.22439e-08 0 0 
0 0 3.48612e-08 1.35017e-07 3.84436e-07 1.04174e-06 2.59646e-06 6.04798e-06 1.3356e-05 2.81763e-05 5.69669e-05 0.000110518 0.000205898 0.000368708 0.000635372 0.00105497 0.00168984 0.00261417 0.00390952 0.00565709 0.00792639 0.0107613 0.0141646 0.0180835 0.0223978 0.0269138 0.0313676 0.0354236 0.0386776 0.0406844 0.0409962 0.0392114 0.0350266 0.0282886 0.0190356 0.00752279 -0.00577477 -0.0201851 -0.0348871 -0.0489785 -0.0615591 -0.071816 -0.0791022 -0.0829967 -0.0833408 -0.0802442 -0.074062 -0.0653494 -0.0547957 -0.0431536 -0.0311661 -0.0195054 -0.00872699 0.00075923 0.00869773 0.0149798 0.019625 0.0227523 0.0245485 0.0252386 0.0250594 0.0242381 0.0229787 0.0214534 0.0197996 0.0181206 0.016489 0.0149513 0.0135341 0.0122483 0.0110948 0.0100675 0.0091566 0.00835002 0.00763539 0.00700117 0.00643668 0.00593224 0.00547972 0.00507223 0.004704 0.0043695 0.00406418 0.00378484 0.00352861 0.00329285 0.00307527 0.00287399 0.00268749 0.00251427 0.00235304 0.00220264 0.00206238 0.00193151 0.00180901 0.0016942 0.00158656 0.00148566 0.00139113 0.00130243 0.00121917 0.00114084 0.00106738 0.000998445 0.000933458 0.000872192 0.000814702 0.000760684 0.000709819 0.00066169 0.000616319 0.00057369 0.000533637 0.000496017 0.000460813 0.000427677 0.000396543 0.000367012 0.000339256 0.000313057 0.000288119 0.000264538 0.000242587 0.000221994 0.000202671 0.000184497 0.000167273 0.000150849 0.000135467 0.000120856 0.000106991 9.39488e-05 8.17508e-05 7.03354e-05 5.96108e-05 4.9524e-05 3.99735e-05 3.09296e-05 2.23188e-05 1.40985e-05 6.39526e-06 -8.15102e-07 -7.6314e-06 -1.40492e-05 -2.00305e-05 -2.58299e-05 -3.11782e-05 -3.61765e-05 -4.10998e-05 -4.5691e-05 -4.98685e-05 -5.38387e-05 -5.76268e-05 -6.10713e-05 -6.45583e-05 -6.80076e-05 -7.10691e-05 -7.38864e-05 -7.64537e-05 -7.88485e-05 -8.10301e-05 -8.2963e-05 -8.48615e-05 -8.68365e-05 -8.86009e-05 -9.03559e-05 -9.18731e-05 -9.3259e-05 -9.44837e-05 -9.54363e-05 -9.64789e-05 -9.76166e-05 -9.87292e-05 -9.97363e-05 -0.000100611 -0.00010131 -0.000101977 -0.000102676 -0.00010327 -0.000103856 -0.000104409 -0.000104782 -0.000104965 -0.000105217 -0.000105469 -0.000105657 -0.000105893 -0.000106115 -0.00010622 -0.000106266 -0.000106168 -0.000106023 -0.000105968 -0.000105817 -0.000105753 -0.000105706 -0.000105758 -0.000105819 -0.000105606 -0.000105399 -0.000105352 -0.000105148 -0.000104904 -0.000104891 -0.000104795 -0.000104592 -0.000104307 -0.000103974 -0.000103861 -0.000103546 -0.000103272 -0.000102898 -0.000102535 -0.000102363 -0.000102166 -0.000101915 -0.000101666 -0.000101349 -0.000101151 -0.000100809 -0.000100459 -0.000100051 -9.96975e-05 -9.92606e-05 -9.90139e-05 -9.87313e-05 -9.83692e-05 -9.81172e-05 -9.781e-05 -9.75606e-05 -9.73757e-05 -9.71554e-05 -9.68614e-05 -9.66478e-05 -9.63506e-05 -9.60634e-05 -9.56158e-05 -9.51858e-05 -9.48773e-05 -9.47087e-05 -9.46514e-05 -9.43662e-05 -9.39122e-05 -9.35742e-05 -9.32565e-05 -9.29021e-05 -9.26631e-05 -9.24842e-05 -9.23319e-05 -9.2213e-05 -9.19829e-05 -9.17456e-05 -9.14579e-05 -9.12546e-05 -9.11336e-05 -9.10985e-05 -9.09571e-05 -9.07023e-05 -9.03777e-05 -9.01564e-05 -8.98673e-05 -8.95451e-05 -8.92408e-05 -8.89901e-05 -8.87881e-05 -8.85947e-05 -8.84002e-05 -8.82828e-05 -8.83178e-05 -8.81627e-05 -8.8049e-05 -8.79362e-05 -8.77795e-05 -8.75558e-05 -8.74406e-05 -8.72319e-05 -8.70883e-05 -8.70623e-05 -8.70927e-05 -8.70372e-05 -8.70137e-05 -8.68448e-05 -8.6665e-05 -8.64361e-05 -8.62586e-05 -8.63388e-05 -8.6449e-05 -8.63758e-05 -8.62408e-05 -8.61677e-05 -8.60618e-05 -8.58985e-05 -8.57418e-05 -8.56948e-05 -8.57435e-05 -8.567e-05 -8.55689e-05 -8.55236e-05 -8.54848e-05 -8.54827e-05 -8.53948e-05 -8.54827e-05 -8.54848e-05 -8.55236e-05 -8.55689e-05 -8.567e-05 -8.57435e-05 -8.56948e-05 -8.57418e-05 -8.58985e-05 -8.60618e-05 -8.61677e-05 -8.62408e-05 -8.63758e-05 -8.6449e-05 -8.63388e-05 -8.62586e-05 -8.64361e-05 -8.6665e-05 -8.68448e-05 -8.70137e-05 -8.70372e-05 -8.70927e-05 -8.70623e-05 -8.70883e-05 -8.72319e-05 -8.74406e-05 -8.75558e-05 -8.77795e-05 -8.79362e-05 -8.8049e-05 -8.81627e-05 -8.83178e-05 -8.82828e-05 -8.84002e-05 -8.85947e-05 -8.87881e-05 -8.89901e-05 -8.92408e-05 -8.95451e-05 -8.98673e-05 -9.01564e-05 -9.03777e-05 -9.07023e-05 -9.09571e-05 -9.10985e-05 -9.11336e-05 -9.12546e-05 -9.14579e-05 -9.17456e-05 -9.19829e-05 -9.2213e-05 -9.23319e-05 -9.24842e-05 -9.26631e-05 -9.29021e-05 -9.32565e-05 -9.35742e-05 -9.39122e-05 -9.43662e-05 -9.46514e-05 -9.47087e-05 -9.48773e-05 -9.51858e-05 -9.56158e-05 -9.60634e-05 -9.63506e-05 -9.66478e-05 -9.68614e-05 -9.71554e-05 -9.73757e-05 -9.75606e-05 -9.781e-05 -9.81172e-05 -9.83692e-05 -9.87313e-05 -9.90139e-05 -9.92606e-05 -9.96975e-05 -0.000100051 -0.000100459 -0.000100809 -0.000101151 -0.000101349 -0.000101666 -0.000101915 -0.000102166 -0.000102363 -0.000102535 -0.000102898 -0.000103272 -0.000103546 -0.000103861 -0.000103974 -0.000104307 -0.000104592 -0.000104795 -0.000104891 -0.000104904 -0.000105148 -0.000105352 -0.000105399 -0.000105606 -0.000105819 -0.000105758 -0.000105706 -0.000105753 -0.000105817 -0.000105968 -0.000106023 -0.000106168 -0.000106266 -0.00010622 -0.000106115 -0.000105893 -0.000105657 -0.000105469 -0.000105217 -0.000104965 -0.000104782 -0.000104409 -0.000103856 -0.00010327 -0.000102676 -0.000101977 -0.00010131 -0.000100611 -9.97363e-05 -9.87292e-05 -9.76166e-05 -9.64789e-05 -9.54363e-05 -9.44837e-05 -9.3259e-05 -9.18731e-05 -9.03559e-05 -8.86009e-05 -8.68365e-05 -8.48615e-05 -8.2963e-05 -8.10301e-05 -7.88485e-05 -7.64537e-05 -7.38864e-05 -7.10691e-05 -6.80076e-05 -6.45583e-05 -6.10713e-05 -5.76268e-05 -5.38387e-05 -4.98685e-05 -4.5691e-05 -4.10998e-05 -3.61765e-05 -3.11782e-05 -2.58299e-05 -2.00305e-05 -1.40492e-05 -7.6314e-06 -8.15102e-07 6.39526e-06 1.40985e-05 2.23188e-05 3.09296e-05 3.99735e-05 4.9524e-05 5.96108e-05 7.03354e-05 8.17508e-05 9.39488e-05 0.000106991 0.000120856 0.000135467 0.000150849 0.000167273 0.000184497 0.000202671 0.000221993 0.000242586 0.000264538 0.000288119 0.000313058 0.000339256 0.000367013 0.000396544 0.000427678 0.000460815 0.000496021 0.000533641 0.000573695 0.000616323 0.000661695 0.00070983 0.0007607 0.000814715 0.000872209 0.000933494 0.000998499 0.00106744 0.00114088 0.00121914 0.00130237 0.00139109 0.00148563 0.00158653 0.00169414 0.00180893 0.00193147 0.00206236 0.0022026 0.00235306 0.00251431 0.00268751 0.00287401 0.00307528 0.00329286 0.00352857 0.00378476 0.0040641 0.00436939 0.00470396 0.00507228 0.00547967 0.00593212 0.00643647 0.0070009 0.00763516 0.0083498 0.00915646 0.0100675 0.0110948 0.0122483 0.0135339 0.0149511 0.0164887 0.0181205 0.0197995 0.0214534 0.0229788 0.0242382 0.0250595 0.0252387 0.0245485 0.0227523 0.019625 0.0149797 0.00869767 0.000759107 -0.0087271 -0.0195057 -0.0311664 -0.0431539 -0.0547959 -0.0653496 -0.0740622 -0.0802443 -0.0833412 -0.0829974 -0.0791032 -0.0718179 -0.0615619 -0.0489825 -0.0348929 -0.0201937 -0.00578702 0.00750551 0.0190115 0.0282558 0.0349829 0.0391544 0.0409231 0.040592 0.0385615 0.035275 0.0312406 0.0268134 0.0223187 0.0180221 0.0141179 0.0107266 0.00790136 0.00563952 0.00389754 0.00260624 0.00168477 0.00105183 0.000633494 0.000367624 0.000205296 0.000110196 5.68019e-05 2.80957e-05 1.332e-05 6.03645e-06 2.60085e-06 1.06015e-06 4.15868e-07 1.2809e-07 0 0 